 vasp.5.4.1 05Feb16 (build Jul 05 2020 17:13:04) complex                        
  
 executed on           IFC91_ompi date 2024.03.22  03:21:19
 running on   16 total cores
 distrk:  each k-point on   16 cores,    1 groups
 distr:  one band on NCORES_PER_BAND=   1 cores,   16 groups


--------------------------------------------------------------------------------------------------------


 INCAR:
 POTCAR:   PAW_PBE Cr 06Sep2000                   
 POTCAR:    PAW_PBE S 17Jan2003                   

 ----------------------------------------------------------------------------- 
|                                                                             |
|           W    W    AA    RRRRR   N    N  II  N    N   GGGG   !!!           |
|           W    W   A  A   R    R  NN   N  II  NN   N  G    G  !!!           |
|           W    W  A    A  R    R  N N  N  II  N N  N  G       !!!           |
|           W WW W  AAAAAA  RRRRR   N  N N  II  N  N N  G  GGG   !            |
|           WW  WW  A    A  R   R   N   NN  II  N   NN  G    G                |
|           W    W  A    A  R    R  N    N  II  N    N   GGGG   !!!           |
|                                                                             |
|      For optimal performance we recommend to set                            |
|        NCORE= 4 - approx SQRT( number of cores)                             |
|      NCORE specifies how many cores store one orbital (NPAR=cpu/NCORE).     |
|      This setting can  greatly improve the performance of VASP for DFT.     |
|      The default, NPAR=number of cores might be grossly inefficient         |
|      on modern multi-core architectures or massively parallel machines.     |
|      Do your own testing !!!!                                               |
|      Unfortunately you need to use the default for GW and RPA calculations. |
|      (for HF NCORE is supported but not extensively tested yet)             |
|                                                                             |
 ----------------------------------------------------------------------------- 

 POTCAR:   PAW_PBE Cr 06Sep2000                   
   VRHFIN =Cr : d5 s1                                                           
   LEXCH  = PE                                                                  
   EATOM  =   276.9744 eV,   20.3570 Ry                                         
                                                                                
   TITEL  = PAW_PBE Cr 06Sep2000                                                
   LULTRA =        F    use ultrasoft PP ?                                      
   IUNSCR =        1    unscreen: 0-lin 1-nonlin 2-no                           
   RPACOR =    2.080    partial core radius                                     
   POMASS =   51.996; ZVAL   =    6.000    mass and valenz                      
   RCORE  =    2.500    outmost cutoff radius                                   
   RWIGS  =    2.500; RWIGS  =    1.323    wigner-seitz radius (au A)           
   ENMAX  =  227.082; ENMIN  =  170.311 eV                                      
   RCLOC  =    1.721    cutoff for local pot                                    
   LCOR   =        T    correct aug charges                                     
   LPAW   =        T    paw PP                                                  
   EAUG   =  402.108                                                            
   DEXC   =    -.035                                                            
   RMAX   =    3.060    core radius for proj-oper                               
   RAUG   =    1.300    factor for augmentation sphere                          
   RDEP   =    2.609    radius for radial grids                                 
   QCUT   =   -4.085; QGAM   =    8.171    optimization parameters              
                                                                                
   Description                                                                  
     l     E      TYP  RCUT    TYP  RCUT                                        
     2   .000     23  2.500                                                     
     2   .000     23  2.500                                                     
     0   .000     23  2.500                                                     
     0   .000     23  2.500                                                     
     1  -.400     23  2.500                                                     
     1  2.000     23  2.500                                                     
     3   .000      7   .000                                                     
  local pseudopotential read in
  partial core-charges read in
  atomic valenz-charges read in
  non local Contribution for L=           2  read in
    real space projection operators read in
  non local Contribution for L=           2  read in
    real space projection operators read in
  non local Contribution for L=           0  read in
    real space projection operators read in
  non local Contribution for L=           0  read in
    real space projection operators read in
  non local Contribution for L=           1  read in
    real space projection operators read in
  non local Contribution for L=           1  read in
    real space projection operators read in
    PAW grid and wavefunctions read in
 
   number of l-projection  operators is LMAX  =           6
   number of lm-projection operators is LMMAX =          18
 
 POTCAR:    PAW_PBE S 17Jan2003                   
   VRHFIN =S : s2p4                                                             
   LEXCH  = PE                                                                  
   EATOM  =   276.8230 eV,   20.3459 Ry                                         
                                                                                
   TITEL  = PAW_PBE S 17Jan2003                                                 
   LULTRA =        F    use ultrasoft PP ?                                      
   IUNSCR =        1    unscreen: 0-lin 1-nonlin 2-no                           
   RPACOR =    1.500    partial core radius                                     
   POMASS =   32.066; ZVAL   =    6.000    mass and valenz                      
   RCORE  =    1.900    outmost cutoff radius                                   
   RWIGS  =    2.200; RWIGS  =    1.164    wigner-seitz radius (au A)           
   ENMAX  =  280.000; ENMIN  =  194.016 eV                                      
   ICORE  =        2    local potential                                         
   LCOR   =        T    correct aug charges                                     
   LPAW   =        T    paw PP                                                  
   EAUG   =  335.092                                                            
   DEXC   =     .000                                                            
   RMAX   =    2.867    core radius for proj-oper                               
   RAUG   =    1.300    factor for augmentation sphere                          
   RDEP   =    1.954    radius for radial grids                                 
   QCUT   =   -4.360; QGAM   =    8.721    optimization parameters              
                                                                                
   Description                                                                  
     l     E      TYP  RCUT    TYP  RCUT                                        
     0   .000     23  1.900                                                     
     0   .000     23  1.900                                                     
     1   .000     23  1.900                                                     
     1   .000     23  1.900                                                     
     2   .000     23  1.900                                                     
  local pseudopotential read in
  partial core-charges read in
  atomic valenz-charges read in
  non local Contribution for L=           0  read in
    real space projection operators read in
  non local Contribution for L=           0  read in
    real space projection operators read in
  non local Contribution for L=           1  read in
    real space projection operators read in
  non local Contribution for L=           1  read in
    real space projection operators read in
    PAW grid and wavefunctions read in
 
   number of l-projection  operators is LMAX  =           4
   number of lm-projection operators is LMMAX =           8
 

 ----------------------------------------------------------------------------- 
|                                                                             |
|  ADVICE TO THIS USER RUNNING 'VASP/VAMP'   (HEAR YOUR MASTER'S VOICE ...):  |
|                                                                             |
|      You have a (more or less) 'large supercell' and for larger cells       |
|      it might be more efficient to use real space projection operators      |
|      So try LREAL= Auto  in the INCAR   file.                               |
|      Mind: If you want to do a very accurate calculations keep the          |
|      reciprocal projection scheme          (i.e. LREAL=.FALSE.)             |
|                                                                             |
 ----------------------------------------------------------------------------- 

 PAW_PBE Cr 06Sep2000                   :
 energy of atom  1       EATOM= -276.9744
 kinetic energy error for atom=    0.0156 (will be added to EATOM!!)
  PAW_PBE S 17Jan2003                   :
 energy of atom  2       EATOM= -276.8230
 kinetic energy error for atom=    0.0122 (will be added to EATOM!!)
 
 
 POSCAR: crystal structure from CrS2 with Hexagin
  positions in cartesian coordinates
  No initial velocities read in
 exchange correlation table for  LEXCH =        8
   RHO(1)=    0.500       N(1)  =     2000
   RHO(2)=  100.500       N(2)  =     4000
 


--------------------------------------------------------------------------------------------------------


 ion  position               nearest neighbor table
   1  0.000  0.000  0.000-  23 2.34  14 2.34  11 2.36  10 2.36  27 2.36  26 2.36
   2  1.000  0.333  0.000-  25 2.34  10 2.34  13 2.36  12 2.36  22 2.36  23 2.36
   3  0.000  0.667  0.000-  27 2.34  12 2.34  14 2.36  15 2.36  24 2.36  25 2.36
   4  0.333  0.000  0.000-  11 2.34  20 2.34  17 2.36  16 2.36  15 2.36  14 2.36
   5  0.333  0.333  0.000-  13 2.34  16 2.34  19 2.36  18 2.36  11 2.36  10 2.36
   6  0.333  0.667  0.000-  15 2.34  18 2.34  20 2.36  21 2.36  13 2.36  12 2.36
   7  0.667  0.000  0.000-  17 2.34  26 2.34  23 2.36  22 2.36  21 2.36  20 2.36
   8  0.667  0.333  0.000-  19 2.34  22 2.34  25 2.36  24 2.36  17 2.36  16 2.36
   9  0.667  0.667  0.000-  21 2.34  24 2.34  27 2.36  26 2.36  19 2.36  18 2.36
  10  0.111  0.222  0.955-   2 2.34   1 2.36   5 2.36
  11  0.222  0.111  0.045-   4 2.34   1 2.36   5 2.36
  12  0.111  0.556  0.955-   3 2.34   2 2.36   6 2.36
  13  0.222  0.444  0.045-   5 2.34   2 2.36   6 2.36
  14  0.111  0.889  0.955-   1 2.34   3 2.36   4 2.36
  15  0.222  0.777  0.045-   6 2.34   3 2.36   4 2.36
  16  0.444  0.222  0.955-   5 2.34   4 2.36   8 2.36
  17  0.556  0.111  0.045-   7 2.34   4 2.36   8 2.36
  18  0.444  0.556  0.955-   6 2.34   5 2.36   9 2.36
  19  0.556  0.444  0.045-   8 2.34   5 2.36   9 2.36
  20  0.444  0.889  0.955-   4 2.34   6 2.36   7 2.36
  21  0.556  0.777  0.045-   9 2.34   6 2.36   7 2.36
  22  0.777  0.222  0.955-   8 2.34   7 2.36   2 2.36
  23  0.889  0.111  0.045-   1 2.34   7 2.36   2 2.36
  24  0.777  0.556  0.955-   9 2.34   8 2.36   3 2.36
  25  0.889  0.444  0.045-   2 2.34   8 2.36   3 2.36
  26  0.777  0.889  0.955-   7 2.34   9 2.36   1 2.36
  27  0.889  0.777  0.045-   3 2.34   9 2.36   1 2.36
 
  LATTYP: Found a base centered orthorhombic cell.
 ALAT       =    10.0800000276
 B/A-ratio  =     1.7202380689
 C/A-ratio  =     2.9761904680
  
  Lattice vectors:
  
 A1 = (   8.6699999603,   5.0399998944,   0.0000000000)
 A2 = (  -8.6699998215,   5.0400001332,   0.0000000000)
 A3 = (   0.0000000000,   0.0000000000,  30.0000000000)


Analysis of symmetry for initial positions (statically):
=====================================================================
 Subroutine PRICEL returns following result:
 
  LATTYP: Found a base centered orthorhombic cell.
 ALAT       =     3.3599998088
 B/A-ratio  =     1.7202380689
 C/A-ratio  =     8.9285719367
  
  Lattice vectors:
  
 A1 = (   2.8899998142,   1.6799998645,   0.0000000000)
 A2 = (  -2.8899997683,   1.6799999443,   0.0000000000)
 A3 = (   0.0000000000,   0.0000000000,  30.0000000000)
 
   9 primitive cells build up your supercell.
 

 Routine SETGRP: Setting up the symmetry group for a 
 base centered orthorhombic supercell.


 Subroutine GETGRP returns: Found  2 space group operations
 (whereof  2 operations were pure point group operations)
 out of a pool of  8 trial point group operations.


The static configuration has the point symmetry C_2 .


Analysis of symmetry for dynamics (positions and initial velocities):
=====================================================================
 Subroutine PRICEL returns following result:
 
  LATTYP: Found a base centered orthorhombic cell.
 ALAT       =     3.3599998088
 B/A-ratio  =     1.7202380689
 C/A-ratio  =     8.9285719367
  
  Lattice vectors:
  
 A1 = (   2.8899998142,   1.6799998645,   0.0000000000)
 A2 = (  -2.8899997683,   1.6799999443,   0.0000000000)
 A3 = (   0.0000000000,   0.0000000000,  30.0000000000)
 
   9 primitive cells build up your supercell.
 

 Routine SETGRP: Setting up the symmetry group for a 
 base centered orthorhombic supercell.


 Subroutine GETGRP returns: Found  2 space group operations
 (whereof  2 operations were pure point group operations)
 out of a pool of  8 trial point group operations.


The dynamic configuration has the point symmetry C_2 .


 Subroutine INISYM returns: Found  2 space group operations
 (whereof  2 operations are pure point group operations),
 and found     9 'primitive' translations

 
 
 KPOINTS: K-POINTS 	#supercell of CrS2 in hexagona

Automatic generation of k-mesh.
Space group operators:
 irot       det(A)        alpha          n_x          n_y          n_z        tau_x        tau_y        tau_z
    1     1.000000     0.000000     1.000000     0.000000     0.000000     0.000000     0.000000     0.000000
    2     1.000000   179.999999    -0.000000    -1.000000     0.000000     0.000000     0.000000     0.000000
 
 Subroutine IBZKPT returns following result:
 ===========================================
 
 Found     21 irreducible k-points:
 
 Following reciprocal coordinates:
            Coordinates               Weight
  0.000000  0.000000  0.000000      1.000000
  0.125000  0.000000  0.000000      4.000000
  0.250000  0.000000  0.000000      4.000000
  0.375000  0.000000  0.000000      4.000000
  0.500000  0.000000  0.000000      2.000000
  0.125000  0.125000  0.000000      2.000000
  0.250000  0.125000  0.000000      4.000000
  0.375000  0.125000  0.000000      4.000000
  0.500000  0.125000  0.000000      4.000000
 -0.375000  0.125000  0.000000      4.000000
 -0.250000  0.125000  0.000000      4.000000
 -0.125000  0.125000  0.000000      2.000000
  0.250000  0.250000  0.000000      2.000000
  0.375000  0.250000  0.000000      4.000000
  0.500000  0.250000  0.000000      4.000000
 -0.375000  0.250000  0.000000      4.000000
 -0.250000  0.250000  0.000000      2.000000
  0.375000  0.375000  0.000000      2.000000
  0.500000  0.375000  0.000000      4.000000
 -0.375000  0.375000  0.000000      2.000000
  0.500000  0.500000  0.000000      1.000000
 
 Following cartesian coordinates:
            Coordinates               Weight
  0.000000  0.000000  0.000000      1.000000
  0.007209  0.012401  0.000000      4.000000
  0.014418  0.024802  0.000000      4.000000
  0.021626  0.037202  0.000000      4.000000
  0.028835  0.049603  0.000000      2.000000
  0.000000  0.024802  0.000000      2.000000
  0.007209  0.037202  0.000000      4.000000
  0.014418  0.049603  0.000000      4.000000
  0.021626  0.062004  0.000000      4.000000
 -0.028835 -0.024802  0.000000      4.000000
 -0.021626 -0.012401  0.000000      4.000000
 -0.014418  0.000000  0.000000      2.000000
  0.000000  0.049603  0.000000      2.000000
  0.007209  0.062004  0.000000      4.000000
  0.014418  0.074405  0.000000      4.000000
 -0.036044 -0.012401  0.000000      4.000000
 -0.028835  0.000000  0.000000      2.000000
  0.000000  0.074405  0.000000      2.000000
  0.007209  0.086806  0.000000      4.000000
 -0.043253  0.000000  0.000000      2.000000
  0.000000  0.099206  0.000000      1.000000
 


--------------------------------------------------------------------------------------------------------




 Dimension of arrays:
   k-points           NKPTS =     21   k-points in BZ     NKDIM =     21   number of bands    NBANDS=    112
   number of dos      NEDOS =    301   number of ions     NIONS =     27
   non local maximal  LDIM  =      6   non local SUM 2l+1 LMDIM =     18
   total plane-waves  NPLWV = 222264
   max r-space proj   IRMAX =      1   max aug-charges    IRDMAX=   4530
   dimension x,y,z NGX =    42 NGY =   42 NGZ =  126
   dimension x,y,z NGXF=    84 NGYF=   84 NGZF=  252
   support grid    NGXF=    84 NGYF=   84 NGZF=  252
   ions per type =               9  18
 NGX,Y,Z   is equivalent  to a cutoff of   6.96,  6.96,  6.98 a.u.
 NGXF,Y,Z  is equivalent  to a cutoff of  13.92, 13.92, 13.96 a.u.


 I would recommend the setting:
   dimension x,y,z NGX =    41 NGY =   41 NGZ =  123
 SYSTEM =  unknown system                          
 POSCAR =  crystal structure from CrS2 with Hexagin

 Startparameter for this run:
   NWRITE =      2    write-flag & timer
   PREC   = normal    normal or accurate (medium, high low for compatibility)
   ISTART =      0    job   : 0-new  1-cont  2-samecut
   ICHARG =      2    charge: 1-file 2-atom 10-const
   ISPIN  =      1    spin polarized calculation?
   LNONCOLLINEAR =      F non collinear calculations
   LSORBIT =      F    spin-orbit coupling
   INIWAV =      1    electr: 0-lowe 1-rand  2-diag
   LASPH  =      F    aspherical Exc in radial PAW
   METAGGA=      F    non-selfconsistent MetaGGA calc.

 Electronic Relaxation 1
   ENCUT  =  280.0 eV  20.58 Ry    4.54 a.u.  13.68 13.68 40.93*2*pi/ulx,y,z
   ENINI  =  280.0     initial cutoff
   ENAUG  =  402.1 eV  augmentation charge cutoff
   NELM   =     60;   NELMIN=  2; NELMDL= -5     # of ELM steps 
   EDIFF  = 0.1E-03   stopping-criterion for ELM
   LREAL  =      F    real-space projection
   NLSPLINE    = F    spline interpolate recip. space projectors
   LCOMPAT=      F    compatible to vasp.4.4
   GGA_COMPAT  = T    GGA compatible to vasp.4.4-vasp.4.6
   LMAXPAW     = -100 max onsite density
   LMAXMIX     =    2 max onsite mixed and CHGCAR
   VOSKOWN=      0    Vosko Wilk Nusair interpolation
   ROPT   =    0.00000   0.00000
 Ionic relaxation
   EDIFFG = 0.1E-02   stopping-criterion for IOM
   NSW    =    100    number of steps for IOM
   NBLOCK =      1;   KBLOCK =    100    inner block; outer block 
   IBRION =      1    ionic relax: 0-MD 1-quasi-New 2-CG
   NFREE  =      0    steps in history (QN), initial steepest desc. (CG)
   ISIF   =      3    stress and relaxation
   IWAVPR =     11    prediction:  0-non 1-charg 2-wave 3-comb
   ISYM   =      2    0-nonsym 1-usesym 2-fastsym
   LCORR  =      T    Harris-Foulkes like correction to forces

   POTIM  = 0.5000    time-step for ionic-motion
   TEIN   =    0.0    initial temperature
   TEBEG  =    0.0;   TEEND  =   0.0 temperature during run
   SMASS  =  -3.00    Nose mass-parameter (am)
   estimated Nose-frequenzy (Omega)   =  0.10E-29 period in steps =****** mass=  -0.230E-26a.u.
   SCALEE = 1.0000    scale energy and forces
   NPACO  =    256;   APACO  = 16.0  distance and # of slots for P.C.
   PSTRESS=    0.0 pullay stress

  Mass of Ions in am
   POMASS =  52.00 32.07
  Ionic Valenz
   ZVAL   =   6.00  6.00
  Atomic Wigner-Seitz radii
   RWIGS  =  -1.00 -1.00
  virtual crystal weights 
   VCA    =   1.00  1.00
   NELECT =     162.0000    total number of electrons
   NUPDOWN=      -1.0000    fix difference up-down

 DOS related values:
   EMIN   =  10.00;   EMAX   =-10.00  energy-range for DOS
   EFERMI =   0.00
   ISMEAR =     0;   SIGMA  =   0.20  broadening in eV -4-tet -1-fermi 0-gaus

 Electronic relaxation 2 (details)
   IALGO  =     38    algorithm
   LDIAG  =      T    sub-space diagonalisation (order eigenvalues)
   LSUBROT=      F    optimize rotation matrix (better conditioning)
   TURBO    =      0    0=normal 1=particle mesh
   IRESTART =      0    0=no restart 2=restart with 2 vectors
   NREBOOT  =      0    no. of reboots
   NMIN     =      0    reboot dimension
   EREF     =   0.00    reference energy to select bands
   IMIX   =      4    mixing-type and parameters
     AMIX     =   0.40;   BMIX     =  1.00
     AMIX_MAG =   1.60;   BMIX_MAG =  1.00
     AMIN     =   0.10
     WC   =   100.;   INIMIX=   1;  MIXPRE=   1;  MAXMIX= -45

 Intra band minimization:
   WEIMIN = 0.0010     energy-eigenvalue tresh-hold
   EBREAK =  0.22E-06  absolut break condition
   DEPER  =   0.30     relativ break condition  

   TIME   =   0.40     timestep for ELM

  volume/ion in A,a.u.               =      97.10       655.29
  Fermi-wavevector in a.u.,A,eV,Ry     =   0.647211  1.223052  5.699245  0.418883
  Thomas-Fermi vector in A             =   1.715446
 
 Write flags
   LWAVE  =      F    write WAVECAR
   LCHARG =      F    write CHGCAR
   LVTOT  =      F    write LOCPOT, total local potential
   LVHAR  =      F    write LOCPOT, Hartree potential only
   LELF   =      F    write electronic localiz. function (ELF)
   LORBIT =      0    0 simple, 1 ext, 2 COOP (PROOUT)


 Dipole corrections
   LMONO  =      F    monopole corrections only (constant potential shift)
   LDIPOL =      F    correct potential (dipole corrections)
   IDIPOL =      0    1-x, 2-y, 3-z, 4-all directions 
   EPSILON=  1.0000000 bulk dielectric constant

 Exchange correlation treatment:
   GGA     =    --    GGA type
   LEXCH   =     8    internal setting for exchange type
   VOSKOWN=      0    Vosko Wilk Nusair interpolation
   LHFCALC =     F    Hartree Fock is set to
   LHFONE  =     F    Hartree Fock one center treatment
   AEXX    =    0.0000 exact exchange contribution

 Linear response parameters
   LEPSILON=     F    determine dielectric tensor
   LRPA    =     F    only Hartree local field effects (RPA)
   LNABLA  =     F    use nabla operator in PAW spheres
   LVEL    =     F    velocity operator in full k-point grid
   LINTERFAST=   F  fast interpolation
   KINTER  =     0    interpolate to denser k-point grid
   CSHIFT  =0.1000    complex shift for real part using Kramers Kronig
   OMEGAMAX=  -1.0    maximum frequency
   DEG_THRESHOLD= 0.2000000E-02 threshold for treating states as degnerate
   RTIME   =    0.100 relaxation time in fs

 Orbital magnetization related:
   ORBITALMAG=     F  switch on orbital magnetization
   LCHIMAG   =     F  perturbation theory with respect to B field
   DQ        =  0.001000  dq finite difference perturbation B field



--------------------------------------------------------------------------------------------------------


 quasi-Newton-method for relaxation of ions
 charge density and potential will be updated during run
 non-spin polarized calculation
 Variant of blocked Davidson
 Davidson routine will perform the subspace rotation
 perform sub-space diagonalisation
    after iterative eigenvector-optimisation
 modified Broyden-mixing scheme, WC =      100.0
 initial mixing is a Kerker type mixing with AMIX =  0.4000 and BMIX =      1.0000
 Hartree-type preconditioning will be used
 using additional bands           31
 reciprocal scheme for non local part
 use partial core corrections
 calculate Harris-corrections to forces 
   (improved forces if not selfconsistent)
 use gradient corrections 
 use of overlap-Matrix (Vanderbilt PP)
 Gauss-broadening in eV      SIGMA  =   0.20


--------------------------------------------------------------------------------------------------------


  energy-cutoff  :      280.00
  volume of cell :     2621.81
      direct lattice vectors                 reciprocal lattice vectors
     8.669999960  5.039999894  0.000000000     0.057670129  0.099206348  0.000000000
    -8.669999821  5.040000133  0.000000000    -0.057670126  0.099206350  0.000000000
     0.000000000  0.000000000 30.000000000     0.000000000  0.000000000  0.033333333

  length of vectors
    10.028484344 10.028484344 30.000000000     0.114750788  0.114750788  0.033333333


 
 k-points in units of 2pi/SCALE and weight: K-POINTS 	#supercell of CrS2 in hexagona
   0.00000000  0.00000000  0.00000000       0.016
   0.00720877  0.01240079  0.00000000       0.062
   0.01441753  0.02480159  0.00000000       0.062
   0.02162630  0.03720238  0.00000000       0.062
   0.02883506  0.04960317  0.00000000       0.031
   0.00000000  0.02480159  0.00000000       0.031
   0.00720877  0.03720238  0.00000000       0.062
   0.01441753  0.04960317  0.00000000       0.062
   0.02162630  0.06200397  0.00000000       0.062
  -0.02883506 -0.02480159  0.00000000       0.062
  -0.02162630 -0.01240079  0.00000000       0.062
  -0.01441753  0.00000000  0.00000000       0.031
   0.00000000  0.04960317  0.00000000       0.031
   0.00720877  0.06200397  0.00000000       0.062
   0.01441753  0.07440476  0.00000000       0.062
  -0.03604383 -0.01240079  0.00000000       0.062
  -0.02883506  0.00000000  0.00000000       0.031
   0.00000000  0.07440476  0.00000000       0.031
   0.00720877  0.08680556  0.00000000       0.062
  -0.04325260  0.00000000  0.00000000       0.031
   0.00000000  0.09920635  0.00000000       0.016
 
 k-points in reciprocal lattice and weights: K-POINTS 	#supercell of CrS2 in hexagona
   0.00000000  0.00000000  0.00000000       0.016
   0.12500000  0.00000000  0.00000000       0.062
   0.25000000  0.00000000  0.00000000       0.062
   0.37500000  0.00000000  0.00000000       0.062
   0.50000000  0.00000000  0.00000000       0.031
   0.12500000  0.12500000  0.00000000       0.031
   0.25000000  0.12500000  0.00000000       0.062
   0.37500000  0.12500000  0.00000000       0.062
   0.50000000  0.12500000  0.00000000       0.062
  -0.37500000  0.12500000  0.00000000       0.062
  -0.25000000  0.12500000  0.00000000       0.062
  -0.12500000  0.12500000  0.00000000       0.031
   0.25000000  0.25000000  0.00000000       0.031
   0.37500000  0.25000000  0.00000000       0.062
   0.50000000  0.25000000  0.00000000       0.062
  -0.37500000  0.25000000  0.00000000       0.062
  -0.25000000  0.25000000  0.00000000       0.031
   0.37500000  0.37500000  0.00000000       0.031
   0.50000000  0.37500000  0.00000000       0.062
  -0.37500000  0.37500000  0.00000000       0.031
   0.50000000  0.50000000  0.00000000       0.016
 
 position of ions in fractional coordinates (direct lattice) 
   0.00000000  0.00000000  0.00000000
   1.00000000  0.33333334  0.00000000
   0.00000000  0.66666669  0.00000000
   0.33333334  0.00000000  0.00000000
   0.33333334  0.33333334  0.00000000
   0.33333334  0.66666669  0.00000000
   0.66666669  0.00000000  0.00000000
   0.66666669  0.33333334  0.00000000
   0.66666669  0.66666669  0.00000000
   0.11068511  0.22244981  0.95539999
   0.22244981  0.11068511  0.04460000
   0.11068511  0.55578315  0.95539999
   0.22244981  0.44401845  0.04460000
   0.11068511  0.88911647  0.95539999
   0.22244981  0.77735180  0.04460000
   0.44401845  0.22244981  0.95539999
   0.55578315  0.11068511  0.04460000
   0.44401845  0.55578315  0.95539999
   0.55578315  0.44401845  0.04460000
   0.44401845  0.88911647  0.95539999
   0.55578315  0.77735180  0.04460000
   0.77735180  0.22244981  0.95539999
   0.88911647  0.11068511  0.04460000
   0.77735180  0.55578315  0.95539999
   0.88911647  0.44401845  0.04460000
   0.77735180  0.88911647  0.95539999
   0.88911647  0.77735180  0.04460000
 
 position of ions in cartesian coordinates  (Angst):
   0.00000000  0.00000000  0.00000000
   5.77999993  6.71999999  0.00000000
  -5.78000005  3.36000019  0.00000000
   2.89000007  1.68000002  0.00000000
   0.00000005  3.36000011  0.00000000
  -2.88999998  5.04000020  0.00000000
   5.78000015  3.36000003  0.00000000
   2.89000012  5.04000012  0.00000000
   0.00000009  6.72000022  0.00000000
  -0.96899991  1.67900001 28.66199970
   0.96899995  1.67899998  1.33799996
  -3.85899993  3.35900011 28.66199970
  -1.92100007  3.35900008  1.33799996
  -6.74899970  5.03900005 28.66199970
  -4.81100010  5.03900017  1.33799996
   1.92100017  3.35900003 28.66199970
   3.85900003  3.35900000  1.33799996
  -0.96899986  5.03900012 28.66199970
   0.96900000  5.03900009  1.33799996
  -3.85899963  6.71900006 28.66199970
  -1.92100003  6.71900019  1.33799996
   4.81100024  5.03900004 28.66199970
   6.74899984  5.03899987  1.33799996
   1.92100021  6.71900014 28.66199970
   3.85899981  6.71899996  1.33799996
  -0.96899956  8.39900008 28.66199970
   0.96899979  8.39900005  1.33799996
 


--------------------------------------------------------------------------------------------------------


 k-point  1 :   0.0000 0.0000 0.0000  plane waves:   27959
 k-point  2 :   0.1250 0.0000 0.0000  plane waves:   27889
 k-point  3 :   0.2500 0.0000 0.0000  plane waves:   27875
 k-point  4 :   0.3750 0.0000 0.0000  plane waves:   27893
 k-point  5 :   0.5000 0.0000 0.0000  plane waves:   27932
 k-point  6 :   0.1250 0.1250 0.0000  plane waves:   27906
 k-point  7 :   0.2500 0.1250 0.0000  plane waves:   27898
 k-point  8 :   0.3750 0.1250 0.0000  plane waves:   27888
 k-point  9 :   0.5000 0.1250 0.0000  plane waves:   27873
 k-point 10 :  -0.3750 0.1250 0.0000  plane waves:   27874
 k-point 11 :  -0.2500 0.1250 0.0000  plane waves:   27895
 k-point 12 :  -0.1250 0.1250 0.0000  plane waves:   27879
 k-point 13 :   0.2500 0.2500 0.0000  plane waves:   27920
 k-point 14 :   0.3750 0.2500 0.0000  plane waves:   27901
 k-point 15 :   0.5000 0.2500 0.0000  plane waves:   27875
 k-point 16 :  -0.3750 0.2500 0.0000  plane waves:   27894
 k-point 17 :  -0.2500 0.2500 0.0000  plane waves:   27870
 k-point 18 :   0.3750 0.3750 0.0000  plane waves:   27860
 k-point 19 :   0.5000 0.3750 0.0000  plane waves:   27895
 k-point 20 :  -0.3750 0.3750 0.0000  plane waves:   27858
 k-point 21 :   0.5000 0.5000 0.0000  plane waves:   27910

 maximum and minimum number of plane-waves per node :     27959    27858

 maximum number of plane-waves:     27959
 maximum index in each direction: 
   IXMAX=   14   IYMAX=   13   IZMAX=   40
   IXMIN=  -14   IYMIN=  -14   IZMIN=  -40

 WARNING: aliasing errors must be expected set NGX to  58 to avoid them
 WARNING: aliasing errors must be expected set NGY to  56 to avoid them
 WARNING: aliasing errors must be expected set NGZ to 162 to avoid them
 aliasing errors are usually negligible using standard VASP settings
 and one can safely disregard these warnings

 serial   3D FFT for wavefunctions

 total amount of memory used by VASP on root node   298021. kBytes
========================================================================

   base      :      30000. kBytes
   nonl-proj :     181232. kBytes
   fftplans  :       4658. kBytes
   grid      :      15179. kBytes
   one-center:        419. kBytes
   wavefun   :      66533. kBytes
 
     INWAV:  cpu time    0.0000: real time    0.0000
 Broyden mixing: mesh for mixing (old mesh)
   NGX = 27   NGY = 27   NGZ = 81
  (NGX  = 84   NGY  = 84   NGZ  =252)
  gives a total of  59049 points

 initial charge density was supplied:
 charge density of overlapping atoms calculated
 number of electron     162.0000000 magnetization 
 keeping initial charge density in first step


--------------------------------------------------------------------------------------------------------


 Maximum index for augmentation-charges          264 (set IRDMAX)


--------------------------------------------------------------------------------------------------------


 First call to EWALD:  gamma=   0.129
 Maximum number of real-space cells 4x 4x 2
 Maximum number of reciprocal cells 2x 2x 5

 FEWALD executed in parallel
    FEWALD:  cpu time    0.0016: real time    0.0016


----------------------------------------- Iteration    1(   1)  ---------------------------------------


    POTLOK:  cpu time    0.0827: real time    0.0829
    SETDIJ:  cpu time    0.0040: real time    0.0040
     EDDAV:  cpu time   22.4154: real time   22.4696
       DOS:  cpu time    0.0011: real time    0.0011
    --------------------------------------------
      LOOP:  cpu time   22.5053: real time   22.5612

 eigenvalue-minimisations  :  4912
 total energy-change (2. order) : 0.1186043E+04  (-0.3643851E+04)
 number of electron     162.0000000 magnetization 
 augmentation part      162.0000000 magnetization 

 Free energy of the ion-electron system (eV)
  ---------------------------------------------------
  alpha Z        PSCENC =        66.26837034
  Ewald energy   TEWEN  =     43618.70461814
  -Hartree energ DENC   =    -50141.92090626
  -exchange      EXHF   =         0.00000000
  -V(xc)+E(xc)   XCENC  =        40.78482037
  PAW double counting   =      3826.37693678    -3590.23280660
  entropy T*S    EENTRO =        -0.66206284
  eigenvalues    EBANDS =      -108.50000822
  atomic energy  EATOM  =      7475.22437441
  Solvation  Ediel_sol  =         0.00000000
  ---------------------------------------------------
  free energy    TOTEN  =      1186.04333612 eV

  energy without entropy =     1186.70539896  energy(sigma->0) =     1186.37436754


--------------------------------------------------------------------------------------------------------




----------------------------------------- Iteration    1(   2)  ---------------------------------------


     EDDAV:  cpu time   24.2452: real time   24.3035
       DOS:  cpu time    0.0010: real time    0.0010
    --------------------------------------------
      LOOP:  cpu time   24.2473: real time   24.3085

 eigenvalue-minimisations  :  5280
 total energy-change (2. order) :-0.1082011E+04  (-0.9990322E+03)
 number of electron     162.0000000 magnetization 
 augmentation part      162.0000000 magnetization 

 Free energy of the ion-electron system (eV)
  ---------------------------------------------------
  alpha Z        PSCENC =        66.26837034
  Ewald energy   TEWEN  =     43618.70461814
  -Hartree energ DENC   =    -50141.92090626
  -exchange      EXHF   =         0.00000000
  -V(xc)+E(xc)   XCENC  =        40.78482037
  PAW double counting   =      3826.37693678    -3590.23280660
  entropy T*S    EENTRO =        -0.43602806
  eigenvalues    EBANDS =     -1190.73753573
  atomic energy  EATOM  =      7475.22437441
  Solvation  Ediel_sol  =         0.00000000
  ---------------------------------------------------
  free energy    TOTEN  =       104.03184338 eV

  energy without entropy =      104.46787145  energy(sigma->0) =      104.24985741


--------------------------------------------------------------------------------------------------------




----------------------------------------- Iteration    1(   3)  ---------------------------------------


     EDDAV:  cpu time   30.3564: real time   30.4296
       DOS:  cpu time    0.0010: real time    0.0010
    --------------------------------------------
      LOOP:  cpu time   30.3586: real time   30.4341

 eigenvalue-minimisations  :  7104
 total energy-change (2. order) :-0.2903749E+03  (-0.2795870E+03)
 number of electron     162.0000000 magnetization 
 augmentation part      162.0000000 magnetization 

 Free energy of the ion-electron system (eV)
  ---------------------------------------------------
  alpha Z        PSCENC =        66.26837034
  Ewald energy   TEWEN  =     43618.70461814
  -Hartree energ DENC   =    -50141.92090626
  -exchange      EXHF   =         0.00000000
  -V(xc)+E(xc)   XCENC  =        40.78482037
  PAW double counting   =      3826.37693678    -3590.23280660
  entropy T*S    EENTRO =        -0.23728497
  eigenvalues    EBANDS =     -1481.31121885
  atomic energy  EATOM  =      7475.22437441
  Solvation  Ediel_sol  =         0.00000000
  ---------------------------------------------------
  free energy    TOTEN  =      -186.34309664 eV

  energy without entropy =     -186.10581167  energy(sigma->0) =     -186.22445415


--------------------------------------------------------------------------------------------------------




----------------------------------------- Iteration    1(   4)  ---------------------------------------


     EDDAV:  cpu time   31.3171: real time   31.3921
       DOS:  cpu time    0.0010: real time    0.0010
    --------------------------------------------
      LOOP:  cpu time   31.3200: real time   31.3967

 eigenvalue-minimisations  :  7408
 total energy-change (2. order) :-0.1967849E+02  (-0.1885521E+02)
 number of electron     162.0000000 magnetization 
 augmentation part      162.0000000 magnetization 

 Free energy of the ion-electron system (eV)
  ---------------------------------------------------
  alpha Z        PSCENC =        66.26837034
  Ewald energy   TEWEN  =     43618.70461814
  -Hartree energ DENC   =    -50141.92090626
  -exchange      EXHF   =         0.00000000
  -V(xc)+E(xc)   XCENC  =        40.78482037
  PAW double counting   =      3826.37693678    -3590.23280660
  entropy T*S    EENTRO =        -0.37911578
  eigenvalues    EBANDS =     -1500.84787794
  atomic energy  EATOM  =      7475.22437441
  Solvation  Ediel_sol  =         0.00000000
  ---------------------------------------------------
  free energy    TOTEN  =      -206.02158654 eV

  energy without entropy =     -205.64247076  energy(sigma->0) =     -205.83202865


--------------------------------------------------------------------------------------------------------




----------------------------------------- Iteration    1(   5)  ---------------------------------------


     EDDAV:  cpu time   29.1383: real time   29.2084
       DOS:  cpu time    0.0010: real time    0.0010
    CHARGE:  cpu time    0.7896: real time    0.7915
    MIXING:  cpu time    0.0034: real time    0.0034
    --------------------------------------------
      LOOP:  cpu time   29.9324: real time   30.0077

 eigenvalue-minimisations  :  6880
 total energy-change (2. order) :-0.4969328E+00  (-0.4862761E+00)
 number of electron     162.0000038 magnetization 
 augmentation part       -3.8074885 magnetization 

 Broyden mixing:
  rms(total) = 0.40315E+01    rms(broyden)= 0.40312E+01
  rms(prec ) = 0.42808E+01
  weight for this iteration     100.00

 Free energy of the ion-electron system (eV)
  ---------------------------------------------------
  alpha Z        PSCENC =        66.26837034
  Ewald energy   TEWEN  =     43618.70461814
  -Hartree energ DENC   =    -50141.92090626
  -exchange      EXHF   =         0.00000000
  -V(xc)+E(xc)   XCENC  =        40.78482037
  PAW double counting   =      3826.37693678    -3590.23280660
  entropy T*S    EENTRO =        -0.38922256
  eigenvalues    EBANDS =     -1501.33470401
  atomic energy  EATOM  =      7475.22437441
  Solvation  Ediel_sol  =         0.00000000
  ---------------------------------------------------
  free energy    TOTEN  =      -206.51851939 eV

  energy without entropy =     -206.12929683  energy(sigma->0) =     -206.32390811


--------------------------------------------------------------------------------------------------------




----------------------------------------- Iteration    1(   6)  ---------------------------------------


    POTLOK:  cpu time    0.0862: real time    0.0865
    SETDIJ:  cpu time    0.0038: real time    0.0038
     EDDAV:  cpu time   30.5103: real time   30.5834
       DOS:  cpu time    0.0014: real time    0.0014
    CHARGE:  cpu time    0.5834: real time    0.5847
    MIXING:  cpu time    0.0026: real time    0.0026
    --------------------------------------------
      LOOP:  cpu time   31.1892: real time   31.2669

 eigenvalue-minimisations  :  7168
 total energy-change (2. order) :-0.8967253E+02  (-0.5742129E+02)
 number of electron     161.9999753 magnetization 
 augmentation part       42.6723283 magnetization 

 Broyden mixing:
  rms(total) = 0.10072E+02    rms(broyden)= 0.10071E+02
  rms(prec ) = 0.10797E+02
  weight for this iteration     100.00

 eigenvalues of (default mixing * dielectric matrix)
  average eigenvalue GAMMA=   0.2854
  0.2854

 Free energy of the ion-electron system (eV)
  ---------------------------------------------------
  alpha Z        PSCENC =        66.26837034
  Ewald energy   TEWEN  =     43618.70461814
  -Hartree energ DENC   =    -49973.03815306
  -exchange      EXHF   =         0.00000000
  -V(xc)+E(xc)   XCENC  =        44.78226457
  PAW double counting   =      3754.14700559    -3487.24879507
  entropy T*S    EENTRO =        -0.36229377
  eigenvalues    EBANDS =     -1794.66844361
  atomic energy  EATOM  =      7475.22437441
  Solvation  Ediel_sol  =         0.00000000
  ---------------------------------------------------
  free energy    TOTEN  =      -296.19105247 eV

  energy without entropy =     -295.82875870  energy(sigma->0) =     -296.00990558


--------------------------------------------------------------------------------------------------------




----------------------------------------- Iteration    1(   7)  ---------------------------------------


    POTLOK:  cpu time    0.0627: real time    0.0628
    SETDIJ:  cpu time    0.0035: real time    0.0035
     EDDAV:  cpu time   32.6498: real time   32.7281
       DOS:  cpu time    0.0010: real time    0.0010
    CHARGE:  cpu time    0.6370: real time    0.6385
    MIXING:  cpu time    0.0026: real time    0.0026
    --------------------------------------------
      LOOP:  cpu time   33.3577: real time   33.4400

 eigenvalue-minimisations  :  7760
 total energy-change (2. order) : 0.1240952E+03  (-0.4435835E+02)
 number of electron     161.9999998 magnetization 
 augmentation part        2.4462809 magnetization 

 Broyden mixing:
  rms(total) = 0.20235E+01    rms(broyden)= 0.20216E+01
  rms(prec ) = 0.21398E+01
  weight for this iteration     100.00

 eigenvalues of (default mixing * dielectric matrix)
  average eigenvalue GAMMA=   0.4193
  0.6152  0.2233

 Free energy of the ion-electron system (eV)
  ---------------------------------------------------
  alpha Z        PSCENC =        66.26837034
  Ewald energy   TEWEN  =     43618.70461814
  -Hartree energ DENC   =    -50142.90069763
  -exchange      EXHF   =         0.00000000
  -V(xc)+E(xc)   XCENC  =        42.66983693
  PAW double counting   =      4032.54320288    -3798.47388064
  entropy T*S    EENTRO =        -0.41150214
  eigenvalues    EBANDS =     -1465.72017774
  atomic energy  EATOM  =      7475.22437441
  Solvation  Ediel_sol  =         0.00000000
  ---------------------------------------------------
  free energy    TOTEN  =      -172.09585546 eV

  energy without entropy =     -171.68435332  energy(sigma->0) =     -171.89010439


--------------------------------------------------------------------------------------------------------




----------------------------------------- Iteration    1(   8)  ---------------------------------------


    POTLOK:  cpu time    0.0660: real time    0.0663
    SETDIJ:  cpu time    0.0034: real time    0.0034
     EDDAV:  cpu time   27.1901: real time   27.2553
       DOS:  cpu time    0.0010: real time    0.0010
    CHARGE:  cpu time    0.6249: real time    0.6264
    MIXING:  cpu time    0.0024: real time    0.0024
    --------------------------------------------
      LOOP:  cpu time   27.8890: real time   27.9587

 eigenvalue-minimisations  :  6176
 total energy-change (2. order) :-0.2799981E+01  (-0.6419134E+01)
 number of electron     161.9999988 magnetization 
 augmentation part        2.3134166 magnetization 

 Broyden mixing:
  rms(total) = 0.18126E+01    rms(broyden)= 0.18124E+01
  rms(prec ) = 0.19216E+01
  weight for this iteration     100.00

 eigenvalues of (default mixing * dielectric matrix)
  average eigenvalue GAMMA=   0.8828
  1.9210  0.4759  0.2515

 Free energy of the ion-electron system (eV)
  ---------------------------------------------------
  alpha Z        PSCENC =        66.26837034
  Ewald energy   TEWEN  =     43618.70461814
  -Hartree energ DENC   =    -50124.42981460
  -exchange      EXHF   =         0.00000000
  -V(xc)+E(xc)   XCENC  =        42.58539949
  PAW double counting   =      4082.87754819    -3848.95978364
  entropy T*S    EENTRO =        -0.44066681
  eigenvalues    EBANDS =     -1486.72588223
  atomic energy  EATOM  =      7475.22437441
  Solvation  Ediel_sol  =         0.00000000
  ---------------------------------------------------
  free energy    TOTEN  =      -174.89583671 eV

  energy without entropy =     -174.45516990  energy(sigma->0) =     -174.67550331


--------------------------------------------------------------------------------------------------------




----------------------------------------- Iteration    1(   9)  ---------------------------------------


    POTLOK:  cpu time    0.0681: real time    0.0683
    SETDIJ:  cpu time    0.0036: real time    0.0036
     EDDAV:  cpu time   30.5048: real time   30.5775
       DOS:  cpu time    0.0010: real time    0.0010
    CHARGE:  cpu time    0.6485: real time    0.6501
    MIXING:  cpu time    0.0025: real time    0.0025
    --------------------------------------------
      LOOP:  cpu time   31.2298: real time   31.3059

 eigenvalue-minimisations  :  7104
 total energy-change (2. order) : 0.5075809E+01  (-0.1553540E+01)
 number of electron     161.9999970 magnetization 
 augmentation part        8.0847381 magnetization 

 Broyden mixing:
  rms(total) = 0.22166E+00    rms(broyden)= 0.22087E+00
  rms(prec ) = 0.23571E+00
  weight for this iteration     100.00

 eigenvalues of (default mixing * dielectric matrix)
  average eigenvalue GAMMA=   0.8281
  1.7074  0.9314  0.2519  0.4215

 Free energy of the ion-electron system (eV)
  ---------------------------------------------------
  alpha Z        PSCENC =        66.26837034
  Ewald energy   TEWEN  =     43618.70461814
  -Hartree energ DENC   =    -50130.16491919
  -exchange      EXHF   =         0.00000000
  -V(xc)+E(xc)   XCENC  =        43.94816942
  PAW double counting   =      4211.65862735    -3976.82963474
  entropy T*S    EENTRO =        -0.63801533
  eigenvalues    EBANDS =     -1477.99161771
  atomic energy  EATOM  =      7475.22437441
  Solvation  Ediel_sol  =         0.00000000
  ---------------------------------------------------
  free energy    TOTEN  =      -169.82002732 eV

  energy without entropy =     -169.18201199  energy(sigma->0) =     -169.50101966


--------------------------------------------------------------------------------------------------------




----------------------------------------- Iteration    1(  10)  ---------------------------------------


    POTLOK:  cpu time    0.0664: real time    0.0666
    SETDIJ:  cpu time    0.0035: real time    0.0035
     EDDAV:  cpu time   29.9829: real time   30.0550
       DOS:  cpu time    0.0010: real time    0.0010
    CHARGE:  cpu time    0.6587: real time    0.6603
    MIXING:  cpu time    0.0030: real time    0.0030
    --------------------------------------------
      LOOP:  cpu time   30.7165: real time   30.7936

 eigenvalue-minimisations  :  6960
 total energy-change (2. order) : 0.6425346E-02  (-0.8705734E-01)
 number of electron     161.9999962 magnetization 
 augmentation part        7.5128266 magnetization 

 Broyden mixing:
  rms(total) = 0.15908E+00    rms(broyden)= 0.15896E+00
  rms(prec ) = 0.16451E+00
  weight for this iteration     100.00

 eigenvalues of (default mixing * dielectric matrix)
  average eigenvalue GAMMA=   1.1222
  2.1446  2.1446  0.2521  0.5965  0.4731

 Free energy of the ion-electron system (eV)
  ---------------------------------------------------
  alpha Z        PSCENC =        66.26837034
  Ewald energy   TEWEN  =     43618.70461814
  -Hartree energ DENC   =    -50143.74928363
  -exchange      EXHF   =         0.00000000
  -V(xc)+E(xc)   XCENC  =        43.99866221
  PAW double counting   =      4235.89391630    -4000.84692219
  entropy T*S    EENTRO =        -0.59231357
  eigenvalues    EBANDS =     -1464.71502399
  atomic energy  EATOM  =      7475.22437441
  Solvation  Ediel_sol  =         0.00000000
  ---------------------------------------------------
  free energy    TOTEN  =      -169.81360197 eV

  energy without entropy =     -169.22128841  energy(sigma->0) =     -169.51744519


--------------------------------------------------------------------------------------------------------




----------------------------------------- Iteration    1(  11)  ---------------------------------------


    POTLOK:  cpu time    0.0660: real time    0.0663
    SETDIJ:  cpu time    0.0034: real time    0.0034
     EDDAV:  cpu time   27.9342: real time   28.0008
       DOS:  cpu time    0.0010: real time    0.0010
    CHARGE:  cpu time    0.7352: real time    0.7370
    MIXING:  cpu time    0.0032: real time    0.0032
    --------------------------------------------
      LOOP:  cpu time   28.7444: real time   28.8154

 eigenvalue-minimisations  :  6480
 total energy-change (2. order) : 0.4637945E-01  (-0.2445664E-01)
 number of electron     161.9999961 magnetization 
 augmentation part        7.6815877 magnetization 

 Broyden mixing:
  rms(total) = 0.47317E-01    rms(broyden)= 0.47301E-01
  rms(prec ) = 0.51346E-01
  weight for this iteration     100.00

 eigenvalues of (default mixing * dielectric matrix)
  average eigenvalue GAMMA=   1.0911
  2.1953  2.1953  0.2521  0.4509  0.7266  0.7266

 Free energy of the ion-electron system (eV)
  ---------------------------------------------------
  alpha Z        PSCENC =        66.26837034
  Ewald energy   TEWEN  =     43618.70461814
  -Hartree energ DENC   =    -50167.23238602
  -exchange      EXHF   =         0.00000000
  -V(xc)+E(xc)   XCENC  =        44.27297721
  PAW double counting   =      4278.82131165    -4042.59419130
  entropy T*S    EENTRO =        -0.58840624
  eigenvalues    EBANDS =     -1442.64389070
  atomic energy  EATOM  =      7475.22437441
  Solvation  Ediel_sol  =         0.00000000
  ---------------------------------------------------
  free energy    TOTEN  =      -169.76722252 eV

  energy without entropy =     -169.17881628  energy(sigma->0) =     -169.47301940


--------------------------------------------------------------------------------------------------------




----------------------------------------- Iteration    1(  12)  ---------------------------------------


    POTLOK:  cpu time    0.0702: real time    0.0713
    SETDIJ:  cpu time    0.0034: real time    0.0035
     EDDAV:  cpu time   27.4805: real time   27.5466
       DOS:  cpu time    0.0010: real time    0.0010
    CHARGE:  cpu time    0.7004: real time    0.7021
    MIXING:  cpu time    0.0031: real time    0.0031
    --------------------------------------------
      LOOP:  cpu time   28.2609: real time   28.3317

 eigenvalue-minimisations  :  6336
 total energy-change (2. order) : 0.4115135E-02  (-0.1955193E-02)
 number of electron     161.9999962 magnetization 
 augmentation part        7.6450833 magnetization 

 Broyden mixing:
  rms(total) = 0.42456E-01    rms(broyden)= 0.42450E-01
  rms(prec ) = 0.45646E-01
  weight for this iteration     100.00

 eigenvalues of (default mixing * dielectric matrix)
  average eigenvalue GAMMA=   1.1461
  2.3223  2.3223  0.2521  0.4584  0.6718  0.9979  0.9979

 Free energy of the ion-electron system (eV)
  ---------------------------------------------------
  alpha Z        PSCENC =        66.26837034
  Ewald energy   TEWEN  =     43618.70461814
  -Hartree energ DENC   =    -50170.17918046
  -exchange      EXHF   =         0.00000000
  -V(xc)+E(xc)   XCENC  =        44.32468038
  PAW double counting   =      4271.66438173    -4035.31642266
  entropy T*S    EENTRO =        -0.59462866
  eigenvalues    EBANDS =     -1439.85930061
  atomic energy  EATOM  =      7475.22437441
  Solvation  Ediel_sol  =         0.00000000
  ---------------------------------------------------
  free energy    TOTEN  =      -169.76310739 eV

  energy without entropy =     -169.16847873  energy(sigma->0) =     -169.46579306


--------------------------------------------------------------------------------------------------------




----------------------------------------- Iteration    1(  13)  ---------------------------------------


    POTLOK:  cpu time    0.0669: real time    0.0672
    SETDIJ:  cpu time    0.0035: real time    0.0035
     EDDAV:  cpu time   30.5452: real time   30.6180
       DOS:  cpu time    0.0010: real time    0.0010
    CHARGE:  cpu time    0.6739: real time    0.6755
    MIXING:  cpu time    0.0033: real time    0.0034
    --------------------------------------------
      LOOP:  cpu time   31.2952: real time   31.3727

 eigenvalue-minimisations  :  7168
 total energy-change (2. order) : 0.2891689E-02  (-0.1298034E-02)
 number of electron     161.9999962 magnetization 
 augmentation part        7.8114299 magnetization 

 Broyden mixing:
  rms(total) = 0.31235E-01    rms(broyden)= 0.31220E-01
  rms(prec ) = 0.34061E-01
  weight for this iteration     100.00

 eigenvalues of (default mixing * dielectric matrix)
  average eigenvalue GAMMA=   1.1865
  2.4430  1.8599  1.8599  0.2521  0.4559  0.9536  0.9536  0.7142

 Free energy of the ion-electron system (eV)
  ---------------------------------------------------
  alpha Z        PSCENC =        66.26837034
  Ewald energy   TEWEN  =     43618.70461814
  -Hartree energ DENC   =    -50176.51927943
  -exchange      EXHF   =         0.00000000
  -V(xc)+E(xc)   XCENC  =        44.43241829
  PAW double counting   =      4272.30440355    -4035.76311812
  entropy T*S    EENTRO =        -0.60198466
  eigenvalues    EBANDS =     -1433.81001822
  atomic energy  EATOM  =      7475.22437441
  Solvation  Ediel_sol  =         0.00000000
  ---------------------------------------------------
  free energy    TOTEN  =      -169.76021570 eV

  energy without entropy =     -169.15823104  energy(sigma->0) =     -169.45922337


--------------------------------------------------------------------------------------------------------




----------------------------------------- Iteration    1(  14)  ---------------------------------------


    POTLOK:  cpu time    0.0665: real time    0.0668
    SETDIJ:  cpu time    0.0035: real time    0.0035
     EDDAV:  cpu time   30.5610: real time   30.6345
       DOS:  cpu time    0.0010: real time    0.0010
    CHARGE:  cpu time    0.6741: real time    0.6757
    MIXING:  cpu time    0.0037: real time    0.0037
    --------------------------------------------
      LOOP:  cpu time   31.3111: real time   31.3892

 eigenvalue-minimisations  :  7152
 total energy-change (2. order) :-0.5224827E-03  (-0.1578779E-03)
 number of electron     161.9999963 magnetization 
 augmentation part        7.8358268 magnetization 

 Broyden mixing:
  rms(total) = 0.35925E-01    rms(broyden)= 0.35922E-01
  rms(prec ) = 0.38887E-01
  weight for this iteration     100.00

 eigenvalues of (default mixing * dielectric matrix)
  average eigenvalue GAMMA=   1.3582
  2.8250  2.3779  2.3779  0.2521  1.1195  1.1195  0.4566  0.7247  0.9711

 Free energy of the ion-electron system (eV)
  ---------------------------------------------------
  alpha Z        PSCENC =        66.26837034
  Ewald energy   TEWEN  =     43618.70461814
  -Hartree energ DENC   =    -50179.53809850
  -exchange      EXHF   =         0.00000000
  -V(xc)+E(xc)   XCENC  =        44.45305209
  PAW double counting   =      4271.01797085    -4034.51334520
  entropy T*S    EENTRO =        -0.60391991
  eigenvalues    EBANDS =     -1430.77376039
  atomic energy  EATOM  =      7475.22437441
  Solvation  Ediel_sol  =         0.00000000
  ---------------------------------------------------
  free energy    TOTEN  =      -169.76073818 eV

  energy without entropy =     -169.15681827  energy(sigma->0) =     -169.45877822


--------------------------------------------------------------------------------------------------------




----------------------------------------- Iteration    1(  15)  ---------------------------------------


    POTLOK:  cpu time    0.0753: real time    0.0765
    SETDIJ:  cpu time    0.0035: real time    0.0035
     EDDAV:  cpu time   30.7650: real time   30.8382
       DOS:  cpu time    0.0010: real time    0.0010
    CHARGE:  cpu time    0.6171: real time    0.6186
    MIXING:  cpu time    0.0041: real time    0.0041
    --------------------------------------------
      LOOP:  cpu time   31.4681: real time   31.5450

 eigenvalue-minimisations  :  7216
 total energy-change (2. order) : 0.3769493E-03  (-0.4177119E-03)
 number of electron     161.9999963 magnetization 
 augmentation part        7.7251243 magnetization 

 Broyden mixing:
  rms(total) = 0.36525E-02    rms(broyden)= 0.36335E-02
  rms(prec ) = 0.48269E-02
  weight for this iteration     100.00

 eigenvalues of (default mixing * dielectric matrix)
  average eigenvalue GAMMA=   1.4086
  3.1446  2.8424  1.7821  1.7821  0.2521  0.4565  1.0897  1.0897  0.9256  0.7212

 Free energy of the ion-electron system (eV)
  ---------------------------------------------------
  alpha Z        PSCENC =        66.26837034
  Ewald energy   TEWEN  =     43618.70461814
  -Hartree energ DENC   =    -50186.55373861
  -exchange      EXHF   =         0.00000000
  -V(xc)+E(xc)   XCENC  =        44.47256050
  PAW double counting   =      4267.58854778    -4031.13365638
  entropy T*S    EENTRO =        -0.60241197
  eigenvalues    EBANDS =     -1423.72902544
  atomic energy  EATOM  =      7475.22437441
  Solvation  Ediel_sol  =         0.00000000
  ---------------------------------------------------
  free energy    TOTEN  =      -169.76036123 eV

  energy without entropy =     -169.15794926  energy(sigma->0) =     -169.45915525


--------------------------------------------------------------------------------------------------------




----------------------------------------- Iteration    1(  16)  ---------------------------------------


    POTLOK:  cpu time    0.0673: real time    0.0676
    SETDIJ:  cpu time    0.0036: real time    0.0036
     EDDAV:  cpu time   27.7099: real time   27.7765
       DOS:  cpu time    0.0010: real time    0.0010
    CHARGE:  cpu time    0.6445: real time    0.6461
    MIXING:  cpu time    0.0037: real time    0.0037
    --------------------------------------------
      LOOP:  cpu time   28.4313: real time   28.5022

 eigenvalue-minimisations  :  6288
 total energy-change (2. order) :-0.1474867E-02  (-0.5479191E-04)
 number of electron     161.9999963 magnetization 
 augmentation part        7.7031736 magnetization 

 Broyden mixing:
  rms(total) = 0.65898E-02    rms(broyden)= 0.65857E-02
  rms(prec ) = 0.72328E-02
  weight for this iteration     100.00

 eigenvalues of (default mixing * dielectric matrix)
  average eigenvalue GAMMA=   1.6244
  4.1859  3.1438  2.3833  2.3833  0.2521  0.4565  1.1425  1.1425  0.7203  1.0290
  1.0290

 Free energy of the ion-electron system (eV)
  ---------------------------------------------------
  alpha Z        PSCENC =        66.26837034
  Ewald energy   TEWEN  =     43618.70461814
  -Hartree energ DENC   =    -50189.17739107
  -exchange      EXHF   =         0.00000000
  -V(xc)+E(xc)   XCENC  =        44.48086560
  PAW double counting   =      4267.25121583    -4030.79062380
  entropy T*S    EENTRO =        -0.60147859
  eigenvalues    EBANDS =     -1421.12178696
  atomic energy  EATOM  =      7475.22437441
  Solvation  Ediel_sol  =         0.00000000
  ---------------------------------------------------
  free energy    TOTEN  =      -169.76183610 eV

  energy without entropy =     -169.16035751  energy(sigma->0) =     -169.46109681


--------------------------------------------------------------------------------------------------------




----------------------------------------- Iteration    1(  17)  ---------------------------------------


    POTLOK:  cpu time    0.0766: real time    0.0768
    SETDIJ:  cpu time    0.0035: real time    0.0035
     EDDAV:  cpu time   22.8899: real time   22.9444
       DOS:  cpu time    0.0011: real time    0.0011
    CHARGE:  cpu time    0.6623: real time    0.6638
    MIXING:  cpu time    0.0039: real time    0.0039
    --------------------------------------------
      LOOP:  cpu time   23.6383: real time   23.6976

 eigenvalue-minimisations  :  5072
 total energy-change (2. order) :-0.2058137E-02  (-0.3284416E-04)
 number of electron     161.9999963 magnetization 
 augmentation part        7.7149336 magnetization 

 Broyden mixing:
  rms(total) = 0.29491E-02    rms(broyden)= 0.29485E-02
  rms(prec ) = 0.31971E-02
  weight for this iteration     100.00

 eigenvalues of (default mixing * dielectric matrix)
  average eigenvalue GAMMA=   1.6618
  5.3846  2.9455  2.2868  1.8629  1.8629  0.2521  0.4565  0.7207  1.0935  1.0935
  0.9911  0.9911

 Free energy of the ion-electron system (eV)
  ---------------------------------------------------
  alpha Z        PSCENC =        66.26837034
  Ewald energy   TEWEN  =     43618.70461814
  -Hartree energ DENC   =    -50192.65232001
  -exchange      EXHF   =         0.00000000
  -V(xc)+E(xc)   XCENC  =        44.49517331
  PAW double counting   =      4268.34897012    -4031.89978735
  entropy T*S    EENTRO =        -0.60131673
  eigenvalues    EBANDS =     -1417.65197646
  atomic energy  EATOM  =      7475.22437441
  Solvation  Ediel_sol  =         0.00000000
  ---------------------------------------------------
  free energy    TOTEN  =      -169.76389424 eV

  energy without entropy =     -169.16257750  energy(sigma->0) =     -169.46323587


--------------------------------------------------------------------------------------------------------




----------------------------------------- Iteration    1(  18)  ---------------------------------------


    POTLOK:  cpu time    0.0696: real time    0.0697
    SETDIJ:  cpu time    0.0035: real time    0.0035
     EDDAV:  cpu time   17.7387: real time   17.7813
       DOS:  cpu time    0.0001: real time    0.0010
    CHARGE:  cpu time    0.6312: real time    0.6327
    MIXING:  cpu time    0.0038: real time    0.0039
    --------------------------------------------
      LOOP:  cpu time   18.4489: real time   18.4960

 eigenvalue-minimisations  :  3520
 total energy-change (2. order) :-0.4761631E-03  (-0.3552863E-05)
 number of electron     161.9999963 magnetization 
 augmentation part        7.7120112 magnetization 

 Broyden mixing:
  rms(total) = 0.33974E-02    rms(broyden)= 0.33972E-02
  rms(prec ) = 0.36360E-02
  weight for this iteration     100.00

 eigenvalues of (default mixing * dielectric matrix)
  average eigenvalue GAMMA=   1.8738
  6.8382  3.1211  3.1211  2.2241  2.2241  0.2521  0.4565  0.7209  1.1244  1.1244
  1.1072  1.1072  0.9389

 Free energy of the ion-electron system (eV)
  ---------------------------------------------------
  alpha Z        PSCENC =        66.26837034
  Ewald energy   TEWEN  =     43618.70461814
  -Hartree energ DENC   =    -50193.35732364
  -exchange      EXHF   =         0.00000000
  -V(xc)+E(xc)   XCENC  =        44.49474816
  PAW double counting   =      4267.92866277    -4031.49160212
  entropy T*S    EENTRO =        -0.60137648
  eigenvalues    EBANDS =     -1416.93484196
  atomic energy  EATOM  =      7475.22437441
  Solvation  Ediel_sol  =         0.00000000
  ---------------------------------------------------
  free energy    TOTEN  =      -169.76437040 eV

  energy without entropy =     -169.16299392  energy(sigma->0) =     -169.46368216


--------------------------------------------------------------------------------------------------------




----------------------------------------- Iteration    1(  19)  ---------------------------------------


    POTLOK:  cpu time    0.0672: real time    0.0673
    SETDIJ:  cpu time    0.0034: real time    0.0034
     EDDAV:  cpu time   19.4516: real time   19.4979
       DOS:  cpu time    0.0002: real time    0.0010
    CHARGE:  cpu time    0.7357: real time    0.7374
    MIXING:  cpu time    0.0042: real time    0.0042
    --------------------------------------------
      LOOP:  cpu time   20.2642: real time   20.3152

 eigenvalue-minimisations  :  3952
 total energy-change (2. order) :-0.6777312E-03  (-0.9835829E-05)
 number of electron     161.9999963 magnetization 
 augmentation part        7.7196532 magnetization 

 Broyden mixing:
  rms(total) = 0.10107E-02    rms(broyden)= 0.10101E-02
  rms(prec ) = 0.10965E-02
  weight for this iteration     100.00

 eigenvalues of (default mixing * dielectric matrix)
  average eigenvalue GAMMA=   1.7981
  6.9981  3.1880  3.1880  2.1521  2.1521  0.2521  0.4565  1.1327  1.1327  1.2352
  1.0528  0.9584  0.7208  0.5542

 Free energy of the ion-electron system (eV)
  ---------------------------------------------------
  alpha Z        PSCENC =        66.26837034
  Ewald energy   TEWEN  =     43618.70461814
  -Hartree energ DENC   =    -50194.65398654
  -exchange      EXHF   =         0.00000000
  -V(xc)+E(xc)   XCENC  =        44.50175977
  PAW double counting   =      4267.90745459    -4031.44599286
  entropy T*S    EENTRO =        -0.60141681
  eigenvalues    EBANDS =     -1415.67022917
  atomic energy  EATOM  =      7475.22437441
  Solvation  Ediel_sol  =         0.00000000
  ---------------------------------------------------
  free energy    TOTEN  =      -169.76504813 eV

  energy without entropy =     -169.16363132  energy(sigma->0) =     -169.46433973


--------------------------------------------------------------------------------------------------------




----------------------------------------- Iteration    1(  20)  ---------------------------------------


    POTLOK:  cpu time    0.0710: real time    0.0712
    SETDIJ:  cpu time    0.0033: real time    0.0033
     EDDAV:  cpu time   17.3409: real time   17.3825
       DOS:  cpu time    0.0010: real time    0.0010
    --------------------------------------------
      LOOP:  cpu time   17.4171: real time   17.4618

 eigenvalue-minimisations  :  3360
 total energy-change (2. order) :-0.6537605E-04  (-0.4037885E-05)
 number of electron     161.9999963 magnetization 
 augmentation part        7.7196532 magnetization 

 Free energy of the ion-electron system (eV)
  ---------------------------------------------------
  alpha Z        PSCENC =        66.26837034
  Ewald energy   TEWEN  =     43618.70461814
  -Hartree energ DENC   =    -50194.73161923
  -exchange      EXHF   =         0.00000000
  -V(xc)+E(xc)   XCENC  =        44.50362430
  PAW double counting   =      4267.91580509    -4031.45327604
  entropy T*S    EENTRO =        -0.60151410
  eigenvalues    EBANDS =     -1415.59549641
  atomic energy  EATOM  =      7475.22437441
  Solvation  Ediel_sol  =         0.00000000
  ---------------------------------------------------
  free energy    TOTEN  =      -169.76511351 eV

  energy without entropy =     -169.16359941  energy(sigma->0) =     -169.46435646


--------------------------------------------------------------------------------------------------------




 average (electrostatic) potential at core
  the test charge radii are     1.1394  0.9698
  (the norm of the test charge is              1.0000)
       1 -53.2224       2 -53.2224       3 -53.2224       4 -53.2224       5 -53.2224
       6 -53.2224       7 -53.2224       8 -53.2224       9 -53.2224      10 -95.3719
      11 -95.3719      12 -95.3719      13 -95.3719      14 -95.3719      15 -95.3719
      16 -95.3719      17 -95.3719      18 -95.3719      19 -95.3719      20 -95.3719
      21 -95.3719      22 -95.3719      23 -95.3719      24 -95.3719      25 -95.3719
      26 -95.3719      27 -95.3719
 
 
 
 E-fermi :  -3.8016     XC(G=0):  -2.3287     alpha+bet : -2.0556


 k-point     1 :       0.0000    0.0000    0.0000
  band No.  band energies     occupation 
      1     -17.8864      2.00000
      2     -16.7484      2.00000
      3     -16.7484      2.00000
      4     -16.7484      2.00000
      5     -16.7484      2.00000
      6     -16.7303      2.00000
      7     -16.7303      2.00000
      8     -16.3884      2.00000
      9     -16.0094      2.00000
     10     -16.0094      2.00000
     11     -16.0094      2.00000
     12     -16.0094      2.00000
     13     -16.0007      2.00000
     14     -16.0007      2.00000
     15     -15.8865      2.00000
     16     -15.8865      2.00000
     17     -15.8784      2.00000
     18     -15.8784      2.00000
     19      -8.6834      2.00000
     20      -8.6499      2.00000
     21      -8.6499      2.00000
     22      -8.6499      2.00000
     23      -8.6499      2.00000
     24      -8.6311      2.00000
     25      -8.6311      2.00000
     26      -8.3804      2.00000
     27      -8.3804      2.00000
     28      -8.3690      2.00000
     29      -8.3690      2.00000
     30      -8.3345      2.00000
     31      -8.3345      2.00000
     32      -7.9958      2.00000
     33      -7.9958      2.00000
     34      -7.9958      2.00000
     35      -7.9958      2.00000
     36      -7.9917      2.00000
     37      -7.9917      2.00000
     38      -7.2800      2.00000
     39      -7.2800      2.00000
     40      -7.2800      2.00000
     41      -7.2800      2.00000
     42      -7.2759      2.00000
     43      -7.2759      2.00000
     44      -7.1237      2.00000
     45      -7.1101      2.00000
     46      -6.8798      2.00000
     47      -6.8798      2.00000
     48      -6.8772      2.00000
     49      -6.8772      2.00000
     50      -6.8772      2.00000
     51      -6.8772      2.00000
     52      -6.7202      2.00000
     53      -6.7202      2.00000
     54      -6.4377      2.00000
     55      -6.4377      2.00000
     56      -6.4060      2.00000
     57      -6.4060      2.00000
     58      -5.5896      2.00000
     59      -5.5896      2.00000
     60      -5.5214      2.00000
     61      -5.5214      2.00000
     62      -5.5214      2.00000
     63      -5.5214      2.00000
     64      -5.3179      2.00000
     65      -5.3179      2.00000
     66      -5.3139      2.00000
     67      -5.3139      2.00000
     68      -5.3139      2.00000
     69      -5.3139      2.00000
     70      -5.1387      2.00000
     71      -4.4562      2.00000
     72      -4.4391      1.99999
     73      -4.3459      1.99988
     74      -4.3459      1.99988
     75      -4.3459      1.99988
     76      -4.3459      1.99988
     77      -4.3402      1.99986
     78      -4.3402      1.99986
     79      -3.8846      1.44275
     80      -3.8846      1.44275
     81      -3.7823      0.89132
     82      -3.7562      0.74839
     83      -3.5824      0.12118
     84      -3.5229      0.04879
     85      -3.5229      0.04879
     86      -3.5229      0.04879
     87      -3.5229      0.04879
     88      -3.5217      0.04782
     89      -3.5217      0.04782
     90      -3.4048      0.00501
     91      -3.4048      0.00501
     92      -3.4024      0.00476
     93      -3.4024      0.00476
     94      -3.1954      0.00002
     95      -3.1954      0.00002
     96      -3.1954      0.00002
     97      -3.1954      0.00002
     98      -3.1921      0.00002
     99      -3.1921      0.00002
    100      -1.6720      0.00000
    101      -1.6720      0.00000
    102      -1.6385      0.00000
    103      -1.6385      0.00000
    104      -1.5179      0.00000
    105      -1.5179      0.00000
    106      -1.5179      0.00000
    107      -1.5179      0.00000
    108      -1.4872      0.00000
    109      -1.4872      0.00000
    110      -1.1584      0.00000
    111      -1.1457      0.00000
    112      -1.1239      0.00000

 k-point     2 :       0.1250    0.0000    0.0000
  band No.  band energies     occupation 
      1     -17.8652      2.00000
      2     -16.9717      2.00000
      3     -16.8464      2.00000
      4     -16.8322      2.00000
      5     -16.6298      2.00000
      6     -16.6085      2.00000
      7     -16.5313      2.00000
      8     -16.3797      2.00000
      9     -16.0649      2.00000
     10     -16.0313      2.00000
     11     -16.0242      2.00000
     12     -15.9840      2.00000
     13     -15.9743      2.00000
     14     -15.9715      2.00000
     15     -15.9261      2.00000
     16     -15.9139      2.00000
     17     -15.8703      2.00000
     18     -15.8683      2.00000
     19      -8.9523      2.00000
     20      -8.7834      2.00000
     21      -8.7712      2.00000
     22      -8.6608      2.00000
     23      -8.6115      2.00000
     24      -8.5879      2.00000
     25      -8.5016      2.00000
     26      -8.4797      2.00000
     27      -8.3838      2.00000
     28      -8.3643      2.00000
     29      -8.3617      2.00000
     30      -8.1396      2.00000
     31      -8.0804      2.00000
     32      -8.0781      2.00000
     33      -8.0705      2.00000
     34      -8.0529      2.00000
     35      -7.9200      2.00000
     36      -7.9124      2.00000
     37      -7.8742      2.00000
     38      -7.3236      2.00000
     39      -7.3204      2.00000
     40      -7.2905      2.00000
     41      -7.1979      2.00000
     42      -7.1869      2.00000
     43      -7.1747      2.00000
     44      -7.1229      2.00000
     45      -7.1048      2.00000
     46      -6.8921      2.00000
     47      -6.8908      2.00000
     48      -6.8853      2.00000
     49      -6.8839      2.00000
     50      -6.8835      2.00000
     51      -6.8805      2.00000
     52      -6.7706      2.00000
     53      -6.7641      2.00000
     54      -6.4589      2.00000
     55      -6.4476      2.00000
     56      -6.3398      2.00000
     57      -6.3154      2.00000
     58      -5.7022      2.00000
     59      -5.6683      2.00000
     60      -5.6451      2.00000
     61      -5.6072      2.00000
     62      -5.5614      2.00000
     63      -5.5220      2.00000
     64      -5.4814      2.00000
     65      -5.4398      2.00000
     66      -5.4237      2.00000
     67      -5.1773      2.00000
     68      -5.1763      2.00000
     69      -5.0892      2.00000
     70      -5.0457      2.00000
     71      -4.5602      2.00000
     72      -4.5219      2.00000
     73      -4.3770      1.99995
     74      -4.3116      1.99969
     75      -4.3051      1.99963
     76      -4.3041      1.99962
     77      -4.2801      1.99928
     78      -4.2776      1.99924
     79      -3.8902      1.46883
     80      -3.8798      1.41979
     81      -3.8724      1.38342
     82      -3.6959      0.45462
     83      -3.6291      0.22243
     84      -3.5725      0.10530
     85      -3.5712      0.10329
     86      -3.4663      0.01775
     87      -3.4647      0.01719
     88      -3.4645      0.01715
     89      -3.4604      0.01584
     90      -3.4563      0.01463
     91      -3.4224      0.00734
     92      -3.3748      0.00254
     93      -3.3743      0.00251
     94      -3.2509      0.00010
     95      -3.2272      0.00005
     96      -3.2228      0.00004
     97      -3.1780      0.00001
     98      -3.1761      0.00001
     99      -3.1540      0.00000
    100      -1.7915      0.00000
    101      -1.7674      0.00000
    102      -1.7213      0.00000
    103      -1.6367      0.00000
    104      -1.6074      0.00000
    105      -1.5138      0.00000
    106      -1.4790      0.00000
    107      -1.4343      0.00000
    108      -1.4224      0.00000
    109      -1.3094      0.00000
    110      -1.2089      0.00000
    111      -1.1602      0.00000
    112      -1.1479      0.00000

 k-point     3 :       0.2500    0.0000    0.0000
  band No.  band energies     occupation 
      1     -17.8022      2.00000
      2     -17.1880      2.00000
      3     -16.9190      2.00000
      4     -16.9093      2.00000
      5     -16.4969      2.00000
      6     -16.4735      2.00000
      7     -16.3540      2.00000
      8     -16.3350      2.00000
      9     -16.1297      2.00000
     10     -16.0479      2.00000
     11     -16.0429      2.00000
     12     -15.9971      2.00000
     13     -15.9799      2.00000
     14     -15.9606      2.00000
     15     -15.9570      2.00000
     16     -15.9470      2.00000
     17     -15.8729      2.00000
     18     -15.8707      2.00000
     19      -9.2246      2.00000
     20      -8.8847      2.00000
     21      -8.8810      2.00000
     22      -8.7913      2.00000
     23      -8.7690      2.00000
     24      -8.5938      2.00000
     25      -8.3611      2.00000
     26      -8.3469      2.00000
     27      -8.3427      2.00000
     28      -8.3411      2.00000
     29      -8.2198      2.00000
     30      -8.1697      2.00000
     31      -8.1587      2.00000
     32      -8.1563      2.00000
     33      -7.9625      2.00000
     34      -7.8728      2.00000
     35      -7.8636      2.00000
     36      -7.7360      2.00000
     37      -7.7238      2.00000
     38      -7.3236      2.00000
     39      -7.3173      2.00000
     40      -7.3171      2.00000
     41      -7.0938      2.00000
     42      -7.0811      2.00000
     43      -7.0793      2.00000
     44      -6.9838      2.00000
     45      -6.9523      2.00000
     46      -6.9279      2.00000
     47      -6.9254      2.00000
     48      -6.9097      2.00000
     49      -6.8976      2.00000
     50      -6.8713      2.00000
     51      -6.8700      2.00000
     52      -6.8328      2.00000
     53      -6.8278      2.00000
     54      -6.5149      2.00000
     55      -6.5033      2.00000
     56      -6.1737      2.00000
     57      -6.1442      2.00000
     58      -5.9696      2.00000
     59      -5.9259      2.00000
     60      -5.8621      2.00000
     61      -5.8156      2.00000
     62      -5.7370      2.00000
     63      -5.5473      2.00000
     64      -5.5233      2.00000
     65      -5.5047      2.00000
     66      -5.3953      2.00000
     67      -5.0439      2.00000
     68      -5.0409      2.00000
     69      -4.9650      2.00000
     70      -4.8778      2.00000
     71      -4.8175      2.00000
     72      -4.6991      2.00000
     73      -4.4052      1.99998
     74      -4.2696      1.99906
     75      -4.1918      1.99421
     76      -4.1846      1.99323
     77      -4.1762      1.99192
     78      -4.1746      1.99165
     79      -4.0038      1.84711
     80      -3.8651      1.34629
     81      -3.8501      1.26846
     82      -3.7223      0.57484
     83      -3.6111      0.17797
     84      -3.6089      0.17309
     85      -3.5614      0.08940
     86      -3.5426      0.06700
     87      -3.5360      0.06033
     88      -3.4096      0.00557
     89      -3.4074      0.00532
     90      -3.3630      0.00193
     91      -3.3596      0.00178
     92      -3.3478      0.00133
     93      -3.3230      0.00071
     94      -3.3121      0.00054
     95      -3.2696      0.00017
     96      -3.2641      0.00014
     97      -3.1727      0.00001
     98      -3.1721      0.00001
     99      -3.1283      0.00000
    100      -1.8684      0.00000
    101      -1.8538      0.00000
    102      -1.8329      0.00000
    103      -1.7425      0.00000
    104      -1.7204      0.00000
    105      -1.4954      0.00000
    106      -1.4778      0.00000
    107      -1.3556      0.00000
    108      -1.3142      0.00000
    109      -1.3095      0.00000
    110      -1.2742      0.00000
    111      -1.2338      0.00000
    112      -1.1450      0.00000

[...]
     88      -2.6153      0.07536
     89      -2.4703      0.00506
     90      -2.4616      0.00417
     91      -2.2988      0.00006
     92      -2.2988      0.00006
     93      -2.2292      0.00001
     94      -2.2292      0.00001
     95      -2.2096      0.00000
     96      -2.2096      0.00000
     97      -2.1338      0.00000
     98      -2.1240      0.00000
     99      -2.1211      0.00000
    100      -1.3028      0.00000
    101      -1.3028      0.00000
    102      -1.1459      0.00000
    103      -1.1459      0.00000
    104      -1.1224      0.00000
    105      -1.0251      0.00000
    106      -1.0251      0.00000
    107      -0.6715      0.00000
    108      -0.4258      0.00000
    109      -0.4258      0.00000
    110      -0.2266      0.00000
    111      -0.1591      0.00000
    112      -0.1569      0.00000

 k-point    21 :       0.5000    0.5000    0.0000
  band No.  band energies     occupation 
      1     -17.6730      2.00000
      2     -17.6730      2.00000
      3     -16.8616      2.00000
      4     -16.8616      2.00000
      5     -16.6425      2.00000
      6     -16.6425      2.00000
      7     -16.1471      2.00000
      8     -16.1471      2.00000
      9     -15.7537      2.00000
     10     -15.7537      2.00000
     11     -15.7537      2.00000
     12     -15.7537      2.00000
     13     -15.7226      2.00000
     14     -15.5320      2.00000
     15     -15.5320      2.00000
     16     -15.5320      2.00000
     17     -15.5320      2.00000
     18     -15.4911      2.00000
     19      -9.7838      2.00000
     20      -9.0610      2.00000
     21      -9.0610      2.00000
     22      -9.0610      2.00000
     23      -9.0610      2.00000
     24      -8.6248      2.00000
     25      -8.5579      2.00000
     26      -8.5579      2.00000
     27      -8.4019      2.00000
     28      -8.4019      2.00000
     29      -8.4019      2.00000
     30      -8.4019      2.00000
     31      -7.8890      2.00000
     32      -7.8890      2.00000
     33      -7.7140      2.00000
     34      -7.7140      2.00000
     35      -7.1021      2.00000
     36      -7.1021      2.00000
     37      -7.0902      2.00000
     38      -7.0902      2.00000
     39      -6.9560      2.00000
     40      -6.8924      2.00000
     41      -6.8924      2.00000
     42      -6.8924      2.00000
     43      -6.8924      2.00000
     44      -6.6387      2.00000
     45      -6.6387      2.00000
     46      -6.6387      2.00000
     47      -6.6387      2.00000
     48      -6.2301      2.00000
     49      -6.1607      2.00000
     50      -6.1607      2.00000
     51      -6.1607      2.00000
     52      -6.1607      2.00000
     53      -5.8705      2.00000
     54      -5.8705      2.00000
     55      -5.8559      2.00000
     56      -5.8559      2.00000
     57      -5.8206      2.00000
     58      -5.8206      2.00000
     59      -5.7226      2.00000
     60      -5.7226      2.00000
     61      -5.7226      2.00000
     62      -5.7226      2.00000
     63      -5.7188      2.00000
     64      -5.3097      2.00000
     65      -5.3097      2.00000
     66      -4.8219      2.00000
     67      -4.8219      2.00000
     68      -4.8008      2.00000
     69      -4.8008      2.00000
     70      -4.4216      2.00000
     71      -4.2481      2.00000
     72      -4.2481      2.00000
     73      -4.2253      2.00000
     74      -3.7459      2.00000
     75      -3.7459      2.00000
     76      -3.5246      2.00000
     77      -3.5246      2.00000
     78      -3.2810      1.99660
     79      -3.2810      1.99660
     80      -3.2810      1.99660
     81      -3.2810      1.99660
     82      -2.6832      0.19424
     83      -2.6669      0.15748
     84      -2.6669      0.15748
     85      -2.6451      0.11708
     86      -2.6451      0.11708
     87      -2.6451      0.11707
     88      -2.6451      0.11707
     89      -2.4753      0.00564
     90      -2.4753      0.00564
     91      -2.2410      0.00001
     92      -2.2410      0.00001
     93      -2.2410      0.00001
     94      -2.2410      0.00001
     95      -2.2306      0.00001
     96      -2.2306      0.00001
     97      -2.1191      0.00000
     98      -2.0948      0.00000
     99      -2.0948      0.00000
    100      -1.2192      0.00000
    101      -1.2192      0.00000
    102      -1.2192      0.00000
    103      -1.2192      0.00000
    104      -1.2007      0.00000
    105      -1.2007      0.00000
    106      -0.9778      0.00000
    107      -0.9778      0.00000
    108      -0.4492      0.00000
    109      -0.4492      0.00000
    110      -0.2255      0.00000
    111      -0.1681      0.00000
    112      -0.1681      0.00000


--------------------------------------------------------------------------------------------------------


 soft charge-density along one line, spin component           1
         0         1         2         3         4         5         6         7         8         9
 total charge-density along one line
 
 pseudopotential strength for first ion, spin component:           1
 -8.718  -0.021  -0.000  -0.000   0.000   0.670   0.005   0.000
 -0.021  -8.658  -0.000   0.000  -0.000   0.005   0.654   0.000
 -0.000  -0.000  -8.622   0.000  -0.000   0.000   0.000   0.645
 -0.000   0.000   0.000  -8.658   0.021   0.000  -0.000  -0.000
  0.000  -0.000  -0.000   0.021  -8.718  -0.000   0.000   0.000
  0.670   0.005   0.000   0.000  -0.000   0.367  -0.001  -0.000
  0.005   0.654   0.000  -0.000   0.000  -0.001   0.371  -0.000
  0.000   0.000   0.645  -0.000   0.000  -0.000  -0.000   0.373
  0.000  -0.000  -0.000   0.654  -0.005  -0.000   0.000   0.000
 -0.000   0.000   0.000  -0.005   0.670   0.000  -0.000  -0.000
 -0.000   0.000  -0.014  -0.000  -0.000   0.000  -0.000   0.003
  0.000  -0.000   0.002   0.000   0.000  -0.000   0.000  -0.001
  0.000  -0.000  -0.000   0.000  -0.000  -0.000   0.000   0.000
  0.000   0.000  -0.000   0.000  -0.000  -0.000  -0.000   0.000
  0.000   0.000   0.000  -0.000  -0.000  -0.000  -0.000  -0.000
 -0.000   0.000   0.000  -0.000   0.000   0.000  -0.000  -0.000
 -0.000  -0.000   0.000  -0.000   0.000   0.000   0.000  -0.000
 -0.000  -0.000  -0.000   0.000   0.000   0.000   0.000   0.000
 total augmentation occupancy for first ion, spin component:           1
  1.006  -0.008   0.000  -0.000  -0.000   0.323   0.229  -0.000   0.000   0.000  -0.000  -0.000   0.000   0.000   0.000   0.000
 -0.008   1.181  -0.000  -0.000  -0.000   0.232   0.553   0.000   0.000   0.000  -0.000  -0.000  -0.000   0.000   0.000  -0.000
  0.000  -0.000   1.027   0.000   0.000  -0.000   0.000   0.220  -0.000   0.000   0.185  -0.027   0.000   0.000   0.000   0.000
 -0.000  -0.000   0.000   1.181   0.008   0.000   0.000  -0.000   0.553  -0.232   0.000   0.000   0.000   0.000   0.000   0.000
 -0.000  -0.000   0.000   0.008   1.006   0.000   0.000   0.000  -0.229   0.323   0.000   0.000  -0.000   0.000   0.000  -0.000
  0.323   0.232  -0.000   0.000   0.000   0.314   0.176  -0.000   0.000  -0.000  -0.000  -0.000   0.000   0.000   0.000  -0.000
  0.229   0.553   0.000   0.000   0.000   0.176   0.482   0.000   0.000   0.000   0.000  -0.000  -0.000   0.000   0.000   0.000
 -0.000   0.000   0.220  -0.000   0.000  -0.000   0.000   0.236  -0.000   0.000   0.045  -0.024   0.000   0.000   0.000  -0.000
  0.000   0.000  -0.000   0.553  -0.229   0.000   0.000  -0.000   0.482  -0.176  -0.000   0.000   0.000   0.000   0.000  -0.000
  0.000   0.000   0.000  -0.232   0.323  -0.000   0.000   0.000  -0.176   0.314   0.000   0.000  -0.000   0.000   0.000   0.000
 -0.000  -0.000   0.185   0.000   0.000  -0.000   0.000   0.045  -0.000   0.000   1.277  -0.344   0.000   0.000   0.000   0.000
 -0.000  -0.000  -0.027   0.000   0.000  -0.000  -0.000  -0.024   0.000   0.000  -0.344   0.152  -0.000   0.000  -0.000   0.000
  0.000  -0.000   0.000   0.000  -0.000   0.000  -0.000   0.000   0.000  -0.000   0.000  -0.000   0.326   0.000  -0.000  -0.011
  0.000   0.000   0.000   0.000   0.000   0.000   0.000   0.000   0.000   0.000   0.000   0.000   0.000   0.393  -0.000  -0.000
  0.000   0.000   0.000   0.000   0.000   0.000   0.000   0.000   0.000   0.000   0.000  -0.000  -0.000  -0.000   0.326   0.000
  0.000  -0.000   0.000   0.000  -0.000  -0.000   0.000  -0.000  -0.000   0.000   0.000   0.000  -0.011  -0.000   0.000   0.001
  0.000   0.000   0.000   0.000   0.000  -0.000  -0.000  -0.000  -0.000  -0.000   0.000   0.000  -0.000  -0.012   0.000   0.000
  0.000   0.000   0.000   0.000   0.000  -0.000  -0.000  -0.000  -0.000  -0.000   0.000   0.000   0.000   0.000  -0.011  -0.000


------------------------ aborting loop because EDIFF is reached ----------------------------------------


    CHARGE:  cpu time    0.6869: real time    0.6886
    FORLOC:  cpu time    0.0140: real time    0.0141
    FORNL :  cpu time    7.0084: real time    7.0251
    STRESS:  cpu time   27.1040: real time   27.1687
    FORCOR:  cpu time    0.0805: real time    0.0807
    FORHAR:  cpu time    0.0267: real time    0.0267
    MIXING:  cpu time    0.0027: real time    0.0027
    OFIELD:  cpu time    0.0000: real time    0.0000

  FORCE on cell =-STRESS in cart. coord.  units (eV):
  Direction    XX          YY          ZZ          XY          YZ          ZX
  --------------------------------------------------------------------------------------
  Alpha Z    79.60754    79.60754    79.60754
  Ewald   57224.87607 57224.86808-62617.72728    -0.00000    -0.00000    -0.06380
  Hartree 58077.59586 58077.58518-57682.01579     0.00000     0.00000    -0.01749
  E(xc)    -614.69689  -614.69670  -622.61377     0.00000     0.00000     0.00003
  Local  ************************117693.60591     0.00000     0.00000     0.07788
  n-local  1212.84186  1212.83411  1272.29068    -0.08332    -0.29710    -0.00180
  augment   -63.69921   -63.69895   -67.47484    -0.00000     0.00000     0.00111
  Kinetic  1899.03150  1899.02397  1942.97680     2.85977     3.59388     0.01139
  Fock        0.00000     0.00000     0.00000     0.00000     0.00000     0.00000
  -------------------------------------------------------------------------------------
  Total       0.26388     0.26138    -1.35076    -0.00000    -0.00000     0.00731
  in kB       0.19371     0.19188    -0.99160    -0.00000    -0.00000     0.00537
  external pressure =       -0.20 kB  Pullay stress =        0.00 kB


 VOLUME and BASIS-vectors are now :
 -----------------------------------------------------------------------------
  energy-cutoff  :      280.00
  volume of cell :     2182.49
      direct lattice vectors                 reciprocal lattice vectors
     7.937169251  4.582854215  0.000000000     0.062994753  0.109102311  0.000000000
    -7.937169125  4.582854434  0.000000000    -0.062994750  0.109102312  0.000000000
     0.000000000  0.000000000 30.000000000     0.000000000  0.000000000  0.033333333

  length of vectors
     9.165217317  9.165217317 30.000000000     0.125982749  0.125982749  0.033333333


 FORCES acting on ions
    electron-ion (+dipol)            ewald-force                    non-local-force                 convergence-correction
 -----------------------------------------------------------------------------------------------
   -.117E-07 0.321E-02 0.185E-05   0.116E-07 -.319E-02 0.141E-04   -.309E-11 -.225E-03 -.212E-20   -.172E-10 0.887E-05 0.475E-07
   -.640E-05 0.321E-02 0.392E-05   0.156E-04 -.321E-02 0.291E-04   -.309E-11 -.225E-03 -.212E-21   -.263E-10 0.887E-05 0.468E-07
   -.128E-04 0.322E-02 0.599E-05   0.312E-04 -.324E-02 0.441E-04   -.309E-11 -.225E-03 -.424E-21   -.617E-10 0.887E-05 0.460E-07
   0.638E-05 0.321E-02 -.200E-06   -.156E-04 -.321E-02 -.754E-06   -.309E-11 -.225E-03 -.127E-20   -.494E-11 0.887E-05 0.482E-07
   -.456E-08 0.322E-02 0.185E-05   0.500E-07 -.324E-02 0.141E-04   -.309E-11 -.225E-03 -.424E-21   -.198E-10 0.887E-05 0.475E-07
   -.637E-05 0.323E-02 0.392E-05   0.155E-04 -.327E-02 0.291E-04   -.309E-11 -.225E-03 0.212E-20   -.500E-10 0.887E-05 0.468E-07
   0.128E-04 0.322E-02 -.225E-05   -.312E-04 -.324E-02 -.156E-04   -.309E-11 -.225E-03 0.424E-21   0.276E-10 0.887E-05 0.490E-07
   0.638E-05 0.323E-02 -.193E-06   -.156E-04 -.327E-02 -.699E-06   -.309E-11 -.225E-03 -.212E-21   0.185E-10 0.887E-05 0.482E-07
   0.294E-07 0.323E-02 0.187E-05   -.590E-08 -.330E-02 0.142E-04   -.309E-11 -.225E-03 -.424E-21   -.193E-10 0.887E-05 0.475E-07
   -.226E-02 -.183E-02 0.650E+03   0.241E-02 0.165E-02 -.654E+03   -.384E-03 0.389E-03 0.431E+01   0.565E-05 -.314E-05 0.313E-02
   0.226E-02 -.184E-02 -.650E+03   -.241E-02 0.165E-02 0.654E+03   0.384E-03 0.389E-03 -.431E+01   -.565E-05 -.314E-05 -.313E-02
   -.221E-02 -.186E-02 0.650E+03   0.242E-02 0.162E-02 -.654E+03   -.384E-03 0.389E-03 0.431E+01   0.565E-05 -.314E-05 0.313E-02
   0.230E-02 -.186E-02 -.650E+03   -.239E-02 0.162E-02 0.654E+03   0.384E-03 0.389E-03 -.431E+01   -.565E-05 -.314E-05 -.313E-02
   -.230E-02 -.181E-02 0.650E+03   0.240E-02 0.166E-02 -.654E+03   -.384E-03 0.389E-03 0.431E+01   0.565E-05 -.314E-05 0.313E-02
   0.234E-02 -.188E-02 -.650E+03   -.239E-02 0.160E-02 0.654E+03   0.384E-03 0.389E-03 -.431E+01   -.565E-05 -.314E-05 -.313E-02
   -.230E-02 -.186E-02 0.650E+03   0.239E-02 0.162E-02 -.654E+03   -.384E-03 0.389E-03 0.431E+01   0.565E-05 -.314E-05 0.313E-02
   0.221E-02 -.186E-02 -.650E+03   -.242E-02 0.162E-02 0.654E+03   0.384E-03 0.389E-03 -.431E+01   -.565E-05 -.314E-05 -.313E-02
   -.226E-02 -.188E-02 0.650E+03   0.241E-02 0.160E-02 -.654E+03   -.384E-03 0.389E-03 0.431E+01   0.565E-05 -.314E-05 0.313E-02
   0.226E-02 -.188E-02 -.650E+03   -.241E-02 0.160E-02 0.654E+03   0.384E-03 0.389E-03 -.431E+01   -.565E-05 -.314E-05 -.313E-02
   -.234E-02 -.183E-02 0.650E+03   0.239E-02 0.164E-02 -.654E+03   -.384E-03 0.389E-03 0.431E+01   0.565E-05 -.314E-05 0.313E-02
   0.230E-02 -.191E-02 -.650E+03   -.240E-02 0.158E-02 0.654E+03   0.384E-03 0.389E-03 -.431E+01   -.565E-05 -.314E-05 -.313E-02
   -.234E-02 -.188E-02 0.650E+03   0.239E-02 0.160E-02 -.654E+03   -.384E-03 0.389E-03 0.431E+01   0.565E-05 -.314E-05 0.313E-02
   0.230E-02 -.182E-02 -.650E+03   -.240E-02 0.166E-02 0.654E+03   0.384E-03 0.389E-03 -.431E+01   -.565E-05 -.314E-05 -.313E-02
   -.230E-02 -.190E-02 0.650E+03   0.240E-02 0.158E-02 -.654E+03   -.384E-03 0.389E-03 0.431E+01   0.565E-05 -.314E-05 0.313E-02
   0.234E-02 -.184E-02 -.650E+03   -.239E-02 0.164E-02 0.654E+03   0.384E-03 0.389E-03 -.431E+01   -.565E-05 -.314E-05 -.313E-02
   -.238E-02 -.186E-02 0.650E+03   0.238E-02 0.162E-02 -.654E+03   -.384E-03 0.389E-03 0.431E+01   0.565E-05 -.314E-05 0.313E-02
   0.238E-02 -.186E-02 -.650E+03   -.238E-02 0.162E-02 0.654E+03   0.384E-03 0.389E-03 -.431E+01   -.565E-05 -.314E-05 -.313E-02
 -----------------------------------------------------------------------------------------------
   0.263E-06 -.448E-02 0.263E-02   -.119E-12 -.309E-13 -.227E-12   0.686E-10 0.499E-02 -.888E-15   -.137E-09 0.233E-04 0.106E-05
 
 
 POSITION                                       TOTAL-FORCE (eV/Angst)
 -----------------------------------------------------------------------------------
     -0.00000     -0.00057     -0.00000        -0.000000     -0.000259     -0.000000
      5.29145      6.10990     -0.00000        -0.000000     -0.000259     -0.000000
     -5.29145      3.05466     -0.00000        -0.000000     -0.000259     -0.000000
      2.64572      1.52704     -0.00000        -0.000000     -0.000259     -0.000000
      0.00000      3.05466     -0.00000        -0.000000     -0.000259     -0.000000
     -2.64572      4.58228     -0.00000        -0.000000     -0.000259     -0.000000
      5.29145      3.05466     -0.00000        -0.000000     -0.000259     -0.000000
      2.64572      4.58228     -0.00000        -0.000000     -0.000259     -0.000000
      0.00000      6.10990     -0.00000        -0.000000     -0.000259     -0.000000
     -0.88185      1.52700     28.52205        -0.000277      0.000130      0.004244
      0.88185      1.52700      1.47795         0.000277      0.000130     -0.004244
     -3.52757      3.05461     28.52205        -0.000277      0.000130      0.004244
     -1.76387      3.05461      1.47795         0.000277      0.000130     -0.004244
     -6.17330      4.58223     28.52205        -0.000277      0.000130      0.004244
     -4.40960      4.58223      1.47795         0.000277      0.000130     -0.004244
      1.76387      3.05461     28.52205        -0.000277      0.000130      0.004244
      3.52757      3.05461      1.47795         0.000277      0.000130     -0.004244
     -0.88185      4.58223     28.52205        -0.000277      0.000130      0.004244
      0.88185      4.58223      1.47795         0.000277      0.000130     -0.004244
     -3.52757      6.10985     28.52205        -0.000277      0.000130      0.004244
     -1.76387      6.10985      1.47795         0.000277      0.000130     -0.004244
      4.40960      4.58223     28.52205        -0.000277      0.000130      0.004244
      6.17330      4.58223      1.47795         0.000277      0.000130     -0.004244
      1.76387      6.10985     28.52205        -0.000277      0.000130      0.004244
      3.52757      6.10985      1.47795         0.000277      0.000130     -0.004244
     -0.88185      7.63747     28.52205        -0.000277      0.000130      0.004244
      0.88185      7.63747      1.47795         0.000277      0.000130     -0.004244
 -----------------------------------------------------------------------------------
    total drift:                                0.000000      0.000528      0.002630


--------------------------------------------------------------------------------------------------------



  FREE ENERGIE OF THE ION-ELECTRON SYSTEM (eV)
  ---------------------------------------------------
  free  energy   TOTEN  =      -173.17183498 eV

  energy  without entropy=     -172.85581379  energy(sigma->0) =     -173.01382438
 
 d Force = 0.2383346E-04[ 0.561E-04,-0.845E-05]  d Energy = 0.5855357E-03-0.562E-03
 d Force =-0.8644968E+01[-0.864E+01,-0.865E+01]  d Ewald  = 0.6450492E+02-0.731E+02


--------------------------------------------------------------------------------------------------------


    POTLOK:  cpu time    0.0732: real time    0.0735


--------------------------------------------------------------------------------------------------------


 Quasi-Newton relaxation of ions (Broydens 2nd method)
  g(Force)  = 0.158E-04   g(Stress)= 0.246E-03

 retain information from N=  1 steps
 eigenvalues of (default step * inverse Hessian matrix)
  average eigenvalue of G=   1.1437
 eigenvalue spectrum of G is  1.1437


--------------------------------------------------------------------------------------------------------


  
 reached required accuracy - stopping structural energy minimisation
     LOOP+:  cpu time  167.4864: real time  168.0079
    4ORBIT:  cpu time    0.0000: real time    0.0000

 total amount of memory used by VASP on root node   298021. kBytes
========================================================================

   base      :      30000. kBytes
   nonl-proj :     181232. kBytes
   fftplans  :       4658. kBytes
   grid      :      15179. kBytes
   one-center:        419. kBytes
   wavefun   :      66533. kBytes
 
  
  
 General timing and accounting informations for this job:
 ========================================================
  
                  Total CPU time used (sec):     2186.581
                            User time (sec):     2180.267
                          System time (sec):        6.314
                         Elapsed time (sec):     2192.146
  
                   Maximum memory used (kb):      396188.
                   Average memory used (kb):           0.
  
                          Minor page faults:       495033
                          Major page faults:            0
                 Voluntary context switches:         1309
