<?xml version="1.0" encoding="ISO-8859-1"?>
<modeling>
 <generator>
  <i name="program" type="string">vasp </i>
  <i name="version" type="string">5.4.1  </i>
  <i name="subversion" type="string">05Feb16 (build Jul 05 2020 17:13:04) complex                          parallel </i>
  <i name="platform" type="string">IFC91_ompi </i>
  <i name="date" type="string">2024 03 22 </i>
  <i name="time" type="string">03:21:19 </i>
 </generator>
 <incar>
  <i type="int" name="ISTART">     0</i>
  <i type="string" name="PREC">normal</i>
  <i type="string" name="ALGO"> Normal</i>
  <i type="int" name="ISPIN">     1</i>
  <i type="int" name="ICHARG">     2</i>
  <i type="int" name="IBRION">     1</i>
  <i type="int" name="NSW">   100</i>
  <i type="int" name="ISIF">     3</i>
  <i name="POTIM">      0.50000000</i>
  <i type="logical" name="LREAL"> F  </i>
  <i type="logical" name="LPLANE"> F  </i>
  <i type="int" name="ISMEAR">     0</i>
  <i type="logical" name="LWAVE"> F  </i>
  <i type="logical" name="LCHARG"> F  </i>
  <v type="int" name="KPOINT_BSE">    -1     0     0     0</v>
 </incar>
 <kpoints>
  <generation param="Gamma">
   <v type="int" name="divisions">       8        8        1 </v>
   <v name="usershift">      0.00000000       0.00000000       0.00000000 </v>
   <v name="genvec1">      0.12500000       0.00000000       0.00000000 </v>
   <v name="genvec2">     -0.00000000       0.12500000       0.00000000 </v>
   <v name="genvec3">      0.00000000       0.00000000       1.00000000 </v>
   <v name="shift">      0.00000000       0.00000000       0.00000000 </v>
  </generation>
  <varray name="kpointlist" >
   <v>       0.00000000       0.00000000       0.00000000 </v>
   <v>       0.12500000       0.00000000       0.00000000 </v>
   <v>       0.25000000       0.00000000       0.00000000 </v>
   <v>       0.37500000       0.00000000       0.00000000 </v>
   <v>       0.50000000       0.00000000       0.00000000 </v>
   <v>       0.12500000       0.12500000       0.00000000 </v>
   <v>       0.25000000       0.12500000       0.00000000 </v>
   <v>       0.37500000       0.12500000       0.00000000 </v>
   <v>       0.50000000       0.12500000       0.00000000 </v>
   <v>      -0.37500000       0.12500000       0.00000000 </v>
   <v>      -0.25000000       0.12500000       0.00000000 </v>
   <v>      -0.12500000       0.12500000       0.00000000 </v>
   <v>       0.25000000       0.25000000       0.00000000 </v>
   <v>       0.37500000       0.25000000       0.00000000 </v>
   <v>       0.50000000       0.25000000       0.00000000 </v>
   <v>      -0.37500000       0.25000000       0.00000000 </v>
   <v>      -0.25000000       0.25000000       0.00000000 </v>
   <v>       0.37500000       0.37500000       0.00000000 </v>
   <v>       0.50000000       0.37500000       0.00000000 </v>
   <v>      -0.37500000       0.37500000       0.00000000 </v>
   <v>       0.50000000       0.50000000       0.00000000 </v>
  </varray>
  <varray name="weights" >
   <v>       0.01562500 </v>
   <v>       0.06250000 </v>
   <v>       0.06250000 </v>
   <v>       0.06250000 </v>
   <v>       0.03125000 </v>
   <v>       0.03125000 </v>
   <v>       0.06250000 </v>
   <v>       0.06250000 </v>
   <v>       0.06250000 </v>
   <v>       0.06250000 </v>
   <v>       0.06250000 </v>
   <v>       0.03125000 </v>
   <v>       0.03125000 </v>
   <v>       0.06250000 </v>
   <v>       0.06250000 </v>
   <v>       0.06250000 </v>
   <v>       0.03125000 </v>
   <v>       0.03125000 </v>
   <v>       0.06250000 </v>
   <v>       0.03125000 </v>
   <v>       0.01562500 </v>
  </varray>
 </kpoints>
 <parameters>
  <separator name="general" >
   <i type="string" name="SYSTEM">unknown system</i>
   <i type="logical" name="LCOMPAT"> F  </i>
  </separator>
  <separator name="electronic" >
   <i type="string" name="PREC">normal</i>
   <i name="ENMAX">    280.00000000</i>
   <i name="ENAUG">    402.10800000</i>
   <i name="EDIFF">      0.00010000</i>
   <i type="int" name="IALGO">    38</i>
   <i type="int" name="IWAVPR">    11</i>
   <i type="int" name="NBANDS">   112</i>
   <i name="NELECT">    162.00000000</i>
   <i type="int" name="TURBO">     0</i>
   <i type="int" name="IRESTART">     0</i>
   <i type="int" name="NREBOOT">     0</i>
   <i type="int" name="NMIN">     0</i>
   <i name="EREF">      0.00000000</i>
   <separator name="electronic smearing" >
    <i type="int" name="ISMEAR">     0</i>
    <i name="SIGMA">      0.20000000</i>
    <i name="KSPACING">      0.50000000</i>
    <i type="logical" name="KGAMMA"> T  </i>
   </separator>
   <separator name="electronic projectors" >
    <i type="logical" name="LREAL"> F  </i>
    <v name="ROPT">      0.00000000      0.00000000</v>
    <i type="int" name="LMAXPAW">  -100</i>
    <i type="int" name="LMAXMIX">     2</i>
    <i type="logical" name="NLSPLINE"> F  </i>
   </separator>
   <separator name="electronic startup" >
    <i type="int" name="ISTART">     0</i>
    <i type="int" name="ICHARG">     2</i>
    <i type="int" name="INIWAV">     1</i>
   </separator>
   <separator name="electronic spin" >
    <i type="int" name="ISPIN">     1</i>
    <i type="logical" name="LNONCOLLINEAR"> F  </i>
    <v name="MAGMOM">      1.00000000      1.00000000      1.00000000      1.00000000      1.00000000      1.00000000      1.00000000      1.00000000      1.00000000      1.00000000      1.00000000      1.00000000      1.00000000      1.00000000      1.00000000      1.00000000      1.00000000      1.00000000      1.00000000      1.00000000
      1.00000000      1.00000000      1.00000000      1.00000000      1.00000000      1.00000000      1.00000000</v>
    <i name="NUPDOWN">     -1.00000000</i>
    <i type="logical" name="LSORBIT"> F  </i>
    <v name="SAXIS">      0.00000000      0.00000000      1.00000000</v>
    <i type="logical" name="LSPIRAL"> F  </i>
    <v name="QSPIRAL">      0.00000000      0.00000000      0.00000000</v>
    <i type="logical" name="LZEROZ"> F  </i>
   </separator>
   <separator name="electronic exchange-correlation" >
    <i type="logical" name="LASPH"> F  </i>
    <i type="logical" name="LMETAGGA"> F  </i>
   </separator>
   <separator name="electronic convergence" >
    <i type="int" name="NELM">    60</i>
    <i type="int" name="NELMDL">    -5</i>
    <i type="int" name="NELMIN">     2</i>
    <i name="ENINI">    280.00000000</i>
    <separator name="electronic convergence detail" >
     <i type="logical" name="LDIAG"> T  </i>
     <i type="logical" name="LSUBROT"> F  </i>
     <i name="WEIMIN">      0.00100000</i>
     <i name="EBREAK">      0.00000022</i>
     <i name="DEPER">      0.30000000</i>
     <i type="int" name="NRMM">     4</i>
     <i name="TIME">      0.40000000</i>
    </separator>
   </separator>
   <separator name="electronic mixer" >
    <i name="AMIX">      0.40000000</i>
    <i name="BMIX">      1.00000000</i>
    <i name="AMIN">      0.10000000</i>
    <i name="AMIX_MAG">      1.60000000</i>
    <i name="BMIX_MAG">      1.00000000</i>
    <separator name="electronic mixer details" >
     <i type="int" name="IMIX">     4</i>
     <i type="logical" name="MIXFIRST"> F  </i>
     <i type="int" name="MAXMIX">   -45</i>
     <i name="WC">    100.00000000</i>
     <i type="int" name="INIMIX">     1</i>
     <i type="int" name="MIXPRE">     1</i>
     <i type="int" name="MREMOVE">     5</i>
    </separator>
   </separator>
   <separator name="electronic dipolcorrection" >
    <i type="logical" name="LDIPOL"> F  </i>
    <i type="logical" name="LMONO"> F  </i>
    <i type="int" name="IDIPOL">     0</i>
    <i name="EPSILON">      1.00000000</i>
    <v name="DIPOL">   -100.00000000   -100.00000000   -100.00000000</v>
    <i name="EFIELD">      0.00000000</i>
   </separator>
  </separator>
  <separator name="grids" >
   <i type="int" name="NGX">    42</i>
   <i type="int" name="NGY">    42</i>
   <i type="int" name="NGZ">   126</i>
   <i type="int" name="NGXF">    84</i>
   <i type="int" name="NGYF">    84</i>
   <i type="int" name="NGZF">   252</i>
   <i type="logical" name="ADDGRID"> F  </i>
  </separator>
  <separator name="ionic" >
   <i type="int" name="NSW">   100</i>
   <i type="int" name="IBRION">     1</i>
   <i type="int" name="ISIF">     3</i>
   <i name="PSTRESS">      0.00000000</i>
   <i name="EDIFFG">      0.00100000</i>
   <i type="int" name="NFREE">     0</i>
   <i name="POTIM">      0.50000000</i>
   <i name="SMASS">     -3.00000000</i>
   <i name="SCALEE">      1.00000000</i>
  </separator>
  <separator name="ionic md" >
   <i name="TEBEG">      0.00010000</i>
   <i name="TEEND">      0.00010000</i>
   <i type="int" name="NBLOCK">     1</i>
   <i type="int" name="KBLOCK">   100</i>
   <i type="int" name="NPACO">   256</i>
   <i name="APACO">     16.00000000</i>
  </separator>
  <separator name="symmetry" >
   <i type="int" name="ISYM">     2</i>
   <i name="SYMPREC">      0.00001000</i>
  </separator>
  <separator name="dos" >
   <i type="logical" name="LORBIT"> F  </i>
   <v name="RWIGS">     -1.00000000     -1.00000000</v>
   <i type="int" name="NEDOS">   301</i>
   <i name="EMIN">     10.00000000</i>
   <i name="EMAX">    -10.00000000</i>
   <i name="EFERMI">      0.00000000</i>
  </separator>
  <separator name="writing" >
   <i type="int" name="NWRITE">     2</i>
   <i type="logical" name="LWAVE"> F  </i>
   <i type="logical" name="LCHARG"> F  </i>
   <i type="logical" name="LPARD"> F  </i>
   <i type="logical" name="LVTOT"> F  </i>
   <i type="logical" name="LVHAR"> F  </i>
   <i type="logical" name="LELF"> F  </i>
   <i type="logical" name="LOPTICS"> F  </i>
   <v name="STM">      0.00000000      0.00000000      0.00000000      0.00000000      0.00000000      0.00000000      0.00000000</v>
  </separator>
  <separator name="performance" >
   <i type="int" name="NPAR">    16</i>
   <i type="int" name="NSIM">     4</i>
   <i type="int" name="NBLK">    -1</i>
   <i type="logical" name="LPLANE"> F  </i>
   <i type="logical" name="LSCALAPACK"> T  </i>
   <i type="logical" name="LSCAAWARE"> F  </i>
   <i type="logical" name="LSCALU"> F  </i>
   <i type="logical" name="LASYNC"> F  </i>
   <i type="logical" name="LORBITALREAL"> F  </i>
  </separator>
  <separator name="miscellaneous" >
   <i type="int" name="IDIOT">     3</i>
   <i type="logical" name="LMUSIC"> F  </i>
   <v name="POMASS">     51.99600000     32.06600000</v>
   <v name="DARWINR">      0.00000000      0.00000000</v>
   <v name="DARWINV">      1.00000000      1.00000000</v>
   <i type="logical" name="LCORR"> T  </i>
  </separator>
  <i type="logical" name="GGA_COMPAT"> T  </i>
  <i type="logical" name="LBERRY"> F  </i>
  <i type="int" name="ICORELEVEL">     0</i>
  <i type="logical" name="LDAU"> F  </i>
  <i type="int" name="I_CONSTRAINED_M">     0</i>
  <separator name="electronic exchange-correlation" >
   <i type="string" name="GGA">--</i>
   <i type="int" name="VOSKOWN">     0</i>
   <i type="logical" name="LHFCALC"> F  </i>
   <i type="string" name="PRECFOCK"></i>
   <i type="logical" name="LSYMGRAD"> F  </i>
   <i type="logical" name="LHFONE"> F  </i>
   <i type="logical" name="LRHFCALC"> F  </i>
   <i type="logical" name="LTHOMAS"> F  </i>
   <i type="logical" name="LMODELHF"> F  </i>
   <i name="ENCUT4O">     -1.00000000</i>
   <i type="int" name="EXXOEP">     0</i>
   <i type="int" name="FOURORBIT">     0</i>
   <i name="AEXX">      0.00000000</i>
   <i name="HFALPHA">      0.00000000</i>
   <i name="MCALPHA">      0.00000000</i>
   <i name="ALDAX">      1.00000000</i>
   <i name="AGGAX">      1.00000000</i>
   <i name="ALDAC">      1.00000000</i>
   <i name="AGGAC">      1.00000000</i>
   <i type="int" name="NKREDX">     1</i>
   <i type="int" name="NKREDY">     1</i>
   <i type="int" name="NKREDZ">     1</i>
   <i type="logical" name="SHIFTRED"> F  </i>
   <i type="logical" name="ODDONLY"> F  </i>
   <i type="logical" name="EVENONLY"> F  </i>
   <i type="int" name="LMAXFOCK">     0</i>
   <i type="int" name="NMAXFOCKAE">     0</i>
   <i type="logical" name="LFOCKAEDFT"> F  </i>
   <i name="HFSCREEN">      0.00000000</i>
   <i name="HFSCREENC">      0.00000000</i>
   <i type="int" name="NBANDSGWLOW">     0</i>
  </separator>
  <separator name="vdW DFT" >
   <i type="logical" name="LUSE_VDW"> F  </i>
   <i name="Zab_VDW">     -0.84910000</i>
   <i name="PARAM1">      0.12340000</i>
   <i name="PARAM2">      1.00000000</i>
   <i name="PARAM3">      0.00000000</i>
  </separator>
  <separator name="model GW" >
   <i type="int" name="MODEL_GW">     0</i>
   <i name="MODEL_EPS0">     58.26239943</i>
   <i name="MODEL_ALPHA">      1.00000000</i>
  </separator>
  <separator name="linear response parameters" >
   <i type="logical" name="LEPSILON"> F  </i>
   <i type="logical" name="LRPA"> F  </i>
   <i type="logical" name="LNABLA"> F  </i>
   <i type="logical" name="LVEL"> F  </i>
   <i type="int" name="KINTER">     0</i>
   <i name="CSHIFT">      0.10000000</i>
   <i name="OMEGAMAX">     -1.00000000</i>
   <i name="DEG_THRESHOLD">      0.00200000</i>
  </separator>
  <separator name="orbital magnetization" >
   <i type="logical" name="NUCIND"> F  </i>
   <v name="MAGPOS">      0.00000000      0.00000000      0.00000000</v>
   <i type="logical" name="LNICSALL"> T  </i>
   <i type="logical" name="ORBITALMAG"> F  </i>
   <i type="logical" name="LMAGBLOCH"> F  </i>
   <i type="logical" name="LCHIMAG"> F  </i>
   <i type="logical" name="LGAUGE"> T  </i>
   <i type="int" name="MAGATOM">     0</i>
   <v name="MAGDIPOL">      0.00000000      0.00000000      0.00000000</v>
   <v name="AVECCONST">      0.00000000      0.00000000      0.00000000</v>
  </separator>
  <separator name="response functions" >
   <i type="logical" name="LADDER"> F  </i>
   <i type="logical" name="LFXC"> F  </i>
   <i type="logical" name="LHARTREE"> T  </i>
   <i type="int" name="IBSE">     0</i>
   <v type="int" name="KPOINT">    -1     0     0     0</v>
   <i type="logical" name="LTCTE"> F  </i>
   <i type="logical" name="LTETE"> F  </i>
   <i type="logical" name="LTRIPLET"> F  </i>
   <i type="logical" name="LFXCEPS"> F  </i>
   <i type="logical" name="LFXHEG"> F  </i>
   <i type="int" name="NATURALO">     0</i>
   <i type="logical" name="L2ORDER"> F  </i>
   <i type="logical" name="LUSEW"> F  </i>
   <i name="ENCUTGW">     -2.00000000</i>
   <i name="ENCUTGWSOFT">     -2.00000000</i>
   <i name="ENCUTLF">     -1.00000000</i>
   <i type="int" name="LMAXMP2">    -1</i>
   <i name="SCISSOR">      0.00000000</i>
   <i type="int" name="NOMEGA">     0</i>
   <i type="int" name="NOMEGAR">     0</i>
   <i type="int" name="NBANDSGW">    -1</i>
   <i type="int" name="NBANDSO">    -1</i>
   <i type="int" name="NBANDSV">    -1</i>
   <i type="int" name="NELM">     1</i>
   <i type="int" name="NELMHF">     1</i>
   <i type="int" name="DIM">     3</i>
   <i type="int" name="ANTIRES">     0</i>
   <i name="OMEGAMAX">    -30.00000000</i>
   <i name="OMEGAMIN">    -30.00000000</i>
   <i name="OMEGATL">   -200.00000000</i>
   <i type="int" name="OMEGAGRID">     0</i>
   <i name="CSHIFT">     -0.10000000</i>
   <i type="logical" name="SELFENERGY"> F  </i>
   <i type="logical" name="LSPECTRAL"> F  </i>
   <i type="logical" name="LSPECTRALGW"> F  </i>
   <i type="logical" name="LSINGLES"> F  </i>
   <i type="logical" name="LFERMIGW"> F  </i>
   <i type="logical" name="ODDONLYGW"> F  </i>
   <i type="logical" name="EVENONLYGW"> F  </i>
   <i type="int" name="NKREDLFX">     1</i>
   <i type="int" name="NKREDLFY">     1</i>
   <i type="int" name="NKREDLFZ">     1</i>
   <i type="int" name="MAXMEM">  1800</i>
   <i type="int" name="TELESCOPE">     0</i>
   <i type="int" name="TAUPAR">     1</i>
   <i type="int" name="OMEGAPAR">    -1</i>
   <i name="LAMBDA">      1.00000000</i>
  </separator>
  <separator name="External order field" >
   <i name="OFIELD_KAPPA">      0.00000000</i>
   <v name="OFIELD_K">      0.00000000      0.00000000      0.00000000</v>
   <i name="OFIELD_Q6_NEAR">      0.00000000</i>
   <i name="OFIELD_Q6_FAR">      0.00000000</i>
   <i name="OFIELD_A">      0.00000000</i>
  </separator>
 </parameters>
 <atominfo>
  <atoms>      27 </atoms>
  <types>       2 </types>
  <array name="atoms" >
   <dimension dim="1">ion</dimension>
   <field type="string">element</field>
   <field type="int">atomtype</field>
   <set>
    <rc><c>Cr</c><c>   1</c></rc>
    <rc><c>Cr</c><c>   1</c></rc>
    <rc><c>Cr</c><c>   1</c></rc>
    <rc><c>Cr</c><c>   1</c></rc>
    <rc><c>Cr</c><c>   1</c></rc>
    <rc><c>Cr</c><c>   1</c></rc>
    <rc><c>Cr</c><c>   1</c></rc>
    <rc><c>Cr</c><c>   1</c></rc>
    <rc><c>Cr</c><c>   1</c></rc>
    <rc><c>S </c><c>   2</c></rc>
    <rc><c>S </c><c>   2</c></rc>
    <rc><c>S </c><c>   2</c></rc>
    <rc><c>S </c><c>   2</c></rc>
    <rc><c>S </c><c>   2</c></rc>
    <rc><c>S </c><c>   2</c></rc>
    <rc><c>S </c><c>   2</c></rc>
    <rc><c>S </c><c>   2</c></rc>
    <rc><c>S </c><c>   2</c></rc>
    <rc><c>S </c><c>   2</c></rc>
    <rc><c>S </c><c>   2</c></rc>
    <rc><c>S </c><c>   2</c></rc>
    <rc><c>S </c><c>   2</c></rc>
    <rc><c>S </c><c>   2</c></rc>
    <rc><c>S </c><c>   2</c></rc>
    <rc><c>S </c><c>   2</c></rc>
    <rc><c>S </c><c>   2</c></rc>
    <rc><c>S </c><c>   2</c></rc>
   </set>
  </array>
  <array name="atomtypes" >
   <dimension dim="1">type</dimension>
   <field type="int">atomspertype</field>
   <field type="string">element</field>
   <field>mass</field>
   <field>valence</field>
   <field type="string">pseudopotential</field>
   <set>
    <rc><c>   9</c><c>Cr</c><c>     51.99600000</c><c>      6.00000000</c><c> PAW_PBE Cr 06Sep2000                   </c></rc>
    <rc><c>  18</c><c>S </c><c>     32.06600000</c><c>      6.00000000</c><c>  PAW_PBE S 17Jan2003                   </c></rc>
   </set>
  </array>
 </atominfo>
 <structure name="initialpos" >
  <crystal>
   <varray name="basis" >
    <v>       8.66999996       5.03999989       0.00000000 </v>
    <v>      -8.66999982       5.04000013       0.00000000 </v>
    <v>       0.00000000       0.00000000      30.00000000 </v>
   </varray>
   <i name="volume">   2621.80797419 </i>
   <varray name="rec_basis" >
    <v>       0.05767013       0.09920635       0.00000000 </v>
    <v>      -0.05767013       0.09920635       0.00000000 </v>
    <v>       0.00000000       0.00000000       0.03333333 </v>
   </varray>
  </crystal>
  <varray name="positions" >
   <v>       0.00000000       0.00000000       0.00000000 </v>
   <v>       1.00000000       0.33333334       0.00000000 </v>
   <v>       0.00000000       0.66666669       0.00000000 </v>
   <v>       0.33333334       0.00000000       0.00000000 </v>
   <v>       0.33333334       0.33333334       0.00000000 </v>
   <v>       0.33333334       0.66666669       0.00000000 </v>
   <v>       0.66666669       0.00000000       0.00000000 </v>
   <v>       0.66666669       0.33333334       0.00000000 </v>
   <v>       0.66666669       0.66666669       0.00000000 </v>
   <v>       0.11068511       0.22244981       0.95539999 </v>
   <v>       0.22244981       0.11068511       0.04460000 </v>
   <v>       0.11068511       0.55578315       0.95539999 </v>
   <v>       0.22244981       0.44401845       0.04460000 </v>
   <v>       0.11068511       0.88911647       0.95539999 </v>
   <v>       0.22244981       0.77735180       0.04460000 </v>
   <v>       0.44401845       0.22244981       0.95539999 </v>
   <v>       0.55578315       0.11068511       0.04460000 </v>
   <v>       0.44401845       0.55578315       0.95539999 </v>
   <v>       0.55578315       0.44401845       0.04460000 </v>
   <v>       0.44401845       0.88911647       0.95539999 </v>
   <v>       0.55578315       0.77735180       0.04460000 </v>
   <v>       0.77735180       0.22244981       0.95539999 </v>
   <v>       0.88911647       0.11068511       0.04460000 </v>
   <v>       0.77735180       0.55578315       0.95539999 </v>
   <v>       0.88911647       0.44401845       0.04460000 </v>
   <v>       0.77735180       0.88911647       0.95539999 </v>
   <v>       0.88911647       0.77735180       0.04460000 </v>
  </varray>
 </structure>
 <calculation>
  <scstep>
   <time name="dav">   22.42   22.47</time>
   <time name="total">   22.51   22.56</time>
   <energy>
    <i name="alphaZ">     66.26837034 </i>
    <i name="ewald">  43618.70461814 </i>
    <i name="hartreedc"> -50141.92090626 </i>
    <i name="XCdc">     40.78482037 </i>
    <i name="pawpsdc">   3826.37693678 </i>
    <i name="pawaedc">  -3590.23280660 </i>
    <i name="eentropy">     -0.66206284 </i>
    <i name="bandstr">   -108.50000822 </i>
    <i name="atom">   7475.22437441 </i>
    <i name="e_fr_energy">   1186.04333612 </i>
    <i name="e_wo_entrp">   1186.70539896 </i>
    <i name="e_0_energy">   1186.37436754 </i>
   </energy>
  </scstep>
  <scstep>
   <time name="dav">   24.25   24.30</time>
   <time name="total">   24.25   24.31</time>
   <energy>
    <i name="e_fr_energy">    104.03184338 </i>
    <i name="e_wo_entrp">    104.46787145 </i>
    <i name="e_0_energy">    104.24985741 </i>
   </energy>
  </scstep>
  <scstep>
   <time name="dav">   30.36   30.43</time>
   <time name="total">   30.36   30.43</time>
   <energy>
    <i name="e_fr_energy">   -186.34309664 </i>
    <i name="e_wo_entrp">   -186.10581167 </i>
    <i name="e_0_energy">   -186.22445415 </i>
   </energy>
  </scstep>
  <scstep>
   <time name="dav">   31.32   31.39</time>
   <time name="total">   31.32   31.40</time>
   <energy>
    <i name="e_fr_energy">   -206.02158654 </i>
    <i name="e_wo_entrp">   -205.64247076 </i>
    <i name="e_0_energy">   -205.83202865 </i>
   </energy>
  </scstep>
  <scstep>
   <time name="dav">   29.14   29.21</time>
   <time name="total">   29.93   30.01</time>
   <energy>
    <i name="e_fr_energy">   -206.51851939 </i>
    <i name="e_wo_entrp">   -206.12929683 </i>
    <i name="e_0_energy">   -206.32390811 </i>
   </energy>
  </scstep>
  <scstep>
   <time name="dav">   30.51   30.58</time>
   <time name="total">   31.19   31.27</time>
   <energy>
    <i name="e_fr_energy">   -296.19105247 </i>
    <i name="e_wo_entrp">   -295.82875870 </i>
    <i name="e_0_energy">   -296.00990558 </i>
   </energy>
  </scstep>
  <scstep>
   <time name="dav">   32.65   32.73</time>
   <time name="total">   33.36   33.44</time>
   <energy>
    <i name="e_fr_energy">   -172.09585546 </i>
    <i name="e_wo_entrp">   -171.68435332 </i>
    <i name="e_0_energy">   -171.89010439 </i>
   </energy>
  </scstep>
  <scstep>
   <time name="dav">   27.19   27.26</time>
   <time name="total">   27.89   27.96</time>
   <energy>
    <i name="e_fr_energy">   -174.89583671 </i>
    <i name="e_wo_entrp">   -174.45516990 </i>
    <i name="e_0_energy">   -174.67550331 </i>
   </energy>
  </scstep>
  <scstep>
   <time name="dav">   30.50   30.58</time>
   <time name="total">   31.23   31.31</time>
   <energy>
    <i name="e_fr_energy">   -169.82002732 </i>
    <i name="e_wo_entrp">   -169.18201199 </i>
    <i name="e_0_energy">   -169.50101966 </i>
   </energy>
  </scstep>
  <scstep>
   <time name="dav">   29.98   30.06</time>
   <time name="total">   30.72   30.79</time>
   <energy>
    <i name="e_fr_energy">   -169.81360197 </i>
    <i name="e_wo_entrp">   -169.22128841 </i>
    <i name="e_0_energy">   -169.51744519 </i>
   </energy>
  </scstep>
  <scstep>
   <time name="dav">   27.93   28.00</time>
   <time name="total">   28.74   28.82</time>
   <energy>
    <i name="e_fr_energy">   -169.76722252 </i>
    <i name="e_wo_entrp">   -169.17881628 </i>
    <i name="e_0_energy">   -169.47301940 </i>
   </energy>
  </scstep>
  <scstep>
   <time name="dav">   27.48   27.55</time>
   <time name="total">   28.26   28.33</time>
   <energy>
    <i name="e_fr_energy">   -169.76310739 </i>
    <i name="e_wo_entrp">   -169.16847873 </i>
    <i name="e_0_energy">   -169.46579306 </i>
   </energy>
  </scstep>
  <scstep>
   <time name="dav">   30.55   30.62</time>
   <time name="total">   31.30   31.37</time>
   <energy>
    <i name="e_fr_energy">   -169.76021570 </i>
    <i name="e_wo_entrp">   -169.15823104 </i>
    <i name="e_0_energy">   -169.45922337 </i>
   </energy>
  </scstep>
  <scstep>
   <time name="dav">   30.56   30.63</time>
   <time name="total">   31.31   31.39</time>
   <energy>
    <i name="e_fr_energy">   -169.76073818 </i>
    <i name="e_wo_entrp">   -169.15681827 </i>
    <i name="e_0_energy">   -169.45877822 </i>
   </energy>
  </scstep>
  <scstep>
   <time name="dav">   30.76   30.84</time>
   <time name="total">   31.47   31.54</time>
   <energy>
    <i name="e_fr_energy">   -169.76036123 </i>
    <i name="e_wo_entrp">   -169.15794926 </i>
    <i name="e_0_energy">   -169.45915525 </i>
   </energy>
  </scstep>
  <scstep>
   <time name="dav">   27.71   27.78</time>
   <time name="total">   28.43   28.50</time>
   <energy>
    <i name="e_fr_energy">   -169.76183610 </i>
    <i name="e_wo_entrp">   -169.16035751 </i>
    <i name="e_0_energy">   -169.46109681 </i>
   </energy>
  </scstep>
  <scstep>
   <time name="dav">   22.89   22.94</time>
   <time name="total">   23.64   23.70</time>
   <energy>
    <i name="e_fr_energy">   -169.76389424 </i>
    <i name="e_wo_entrp">   -169.16257750 </i>
    <i name="e_0_energy">   -169.46323587 </i>
   </energy>
  </scstep>
  <scstep>
   <time name="dav">   17.74   17.78</time>
   <time name="total">   18.45   18.50</time>
   <energy>
    <i name="e_fr_energy">   -169.76437040 </i>
    <i name="e_wo_entrp">   -169.16299392 </i>
    <i name="e_0_energy">   -169.46368216 </i>
   </energy>
  </scstep>
  <scstep>
   <time name="dav">   19.45   19.50</time>
   <time name="total">   20.26   20.32</time>
   <energy>
    <i name="e_fr_energy">   -169.76504813 </i>
    <i name="e_wo_entrp">   -169.16363132 </i>
    <i name="e_0_energy">   -169.46433973 </i>
   </energy>
  </scstep>
  <scstep>
   <time name="dav">   17.34   17.38</time>
   <time name="total">   17.42   17.46</time>
   <energy>
    <i name="alphaZ">     66.26837034 </i>
    <i name="ewald">  43618.70461814 </i>
    <i name="hartreedc"> -50194.73161923 </i>
    <i name="XCdc">     44.50362430 </i>
    <i name="pawpsdc">   4267.91580509 </i>
    <i name="pawaedc">  -4031.45327604 </i>
    <i name="eentropy">     -0.60151410 </i>
    <i name="bandstr">  -1415.59549641 </i>
    <i name="atom">   7475.22437441 </i>
    <i name="e_fr_energy">   -169.76511351 </i>
    <i name="e_wo_entrp">   -169.16359941 </i>
    <i name="e_0_energy">   -169.46435646 </i>
   </energy>
  </scstep>
  <structure>
   <crystal>
    <varray name="basis" >
     <v>       8.66999996       5.03999989       0.00000000 </v>
     <v>      -8.66999982       5.04000013       0.00000000 </v>
     <v>       0.00000000       0.00000000      30.00000000 </v>
    </varray>
    <i name="volume">   2621.80797419 </i>
    <varray name="rec_basis" >
     <v>       0.05767013       0.09920635       0.00000000 </v>
     <v>      -0.05767013       0.09920635       0.00000000 </v>
     <v>       0.00000000       0.00000000       0.03333333 </v>
    </varray>
   </crystal>
   <varray name="positions" >
    <v>       0.00000000       0.00000000       0.00000000 </v>
    <v>       1.00000000       0.33333334       0.00000000 </v>
    <v>       0.00000000       0.66666669       0.00000000 </v>
    <v>       0.33333334       0.00000000       0.00000000 </v>
    <v>       0.33333334       0.33333334       0.00000000 </v>
    <v>       0.33333334       0.66666669       0.00000000 </v>
    <v>       0.66666669       0.00000000       0.00000000 </v>
    <v>       0.66666669       0.33333334       0.00000000 </v>
    <v>       0.66666669       0.66666669       0.00000000 </v>
    <v>       0.11068511       0.22244981       0.95539999 </v>
    <v>       0.22244981       0.11068511       0.04460000 </v>
    <v>       0.11068511       0.55578315       0.95539999 </v>
    <v>       0.22244981       0.44401845       0.04460000 </v>
    <v>       0.11068511       0.88911647       0.95539999 </v>
    <v>       0.22244981       0.77735180       0.04460000 </v>
    <v>       0.44401845       0.22244981       0.95539999 </v>
    <v>       0.55578315       0.11068511       0.04460000 </v>
    <v>       0.44401845       0.55578315       0.95539999 </v>
    <v>       0.55578315       0.44401845       0.04460000 </v>
    <v>       0.44401845       0.88911647       0.95539999 </v>
    <v>       0.55578315       0.77735180       0.04460000 </v>
    <v>       0.77735180       0.22244981       0.95539999 </v>
    <v>       0.88911647       0.11068511       0.04460000 </v>
    <v>       0.77735180       0.55578315       0.95539999 </v>
    <v>       0.88911647       0.44401845       0.04460000 </v>
    <v>       0.77735180       0.88911647       0.95539999 </v>
    <v>       0.88911647       0.77735180       0.04460000 </v>
   </varray>
  </structure>
  <varray name="forces" >
   <v>       0.00000000       0.00433182       0.00000000 </v>
   <v>       0.00000000       0.00433182       0.00000000 </v>
   <v>       0.00000000       0.00433182       0.00000000 </v>
   <v>       0.00000000       0.00433182       0.00000000 </v>
   <v>       0.00000000       0.00433182       0.00000000 </v>
   <v>       0.00000000       0.00433182       0.00000000 </v>
   <v>       0.00000000       0.00433182       0.00000000 </v>
   <v>       0.00000000       0.00433182       0.00000000 </v>
   <v>       0.00000000       0.00433182       0.00000000 </v>
   <v>       0.05195414      -0.00216591      -0.12112008 </v>
   <v>      -0.05195414      -0.00216591       0.12112008 </v>
   <v>       0.05195414      -0.00216591      -0.12112008 </v>
   <v>      -0.05195414      -0.00216591       0.12112008 </v>
   <v>       0.05195414      -0.00216591      -0.12112008 </v>
   <v>      -0.05195414      -0.00216591       0.12112008 </v>
   <v>       0.05195414      -0.00216591      -0.12112008 </v>
   <v>      -0.05195414      -0.00216591       0.12112008 </v>
   <v>       0.05195414      -0.00216591      -0.12112008 </v>
   <v>      -0.05195414      -0.00216591       0.12112008 </v>
   <v>       0.05195414      -0.00216591      -0.12112008 </v>
   <v>      -0.05195414      -0.00216591       0.12112008 </v>
   <v>       0.05195414      -0.00216591      -0.12112008 </v>
   <v>      -0.05195414      -0.00216591       0.12112008 </v>
   <v>       0.05195414      -0.00216591      -0.12112008 </v>
   <v>      -0.05195414      -0.00216591       0.12112008 </v>
   <v>       0.05195414      -0.00216591      -0.12112008 </v>
   <v>      -0.05195414      -0.00216591       0.12112008 </v>
  </varray>
  <varray name="stress" >
   <v>     -20.08306338      -0.00000002      -0.75821715 </v>
   <v>      -0.00000002     -21.28549508       0.00000001 </v>
   <v>      -0.75821715       0.00000001       0.70408919 </v>
  </varray>
  <energy>
   <i name="e_fr_energy">   -169.76511351 </i>
   <i name="e_wo_entrp">   -169.46435646 </i>
   <i name="e_0_energy">     -0.60151410 </i>
  </energy>
  <time name="totalsc">  590.70  592.17</time>
 </calculation>
 <calculation>
  <scstep>
   <time name="dav">   23.04   23.10</time>
   <time name="total">   23.90   23.96</time>
   <energy>
    <i name="alphaZ">     75.07476689 </i>
    <i name="ewald">  50056.93121951 </i>
    <i name="hartreedc"> -56739.42395939 </i>
    <i name="XCdc">     59.22075007 </i>
    <i name="pawpsdc">   4267.90344752 </i>
    <i name="pawaedc">  -4031.43783219 </i>
    <i name="eentropy">     -0.34531055 </i>
    <i name="bandstr">  -1341.61132001 </i>
    <i name="atom">   7475.22437441 </i>
    <i name="e_fr_energy">   -178.46386374 </i>
    <i name="e_wo_entrp">   -178.11855320 </i>
    <i name="e_0_energy">   -178.29120847 </i>
   </energy>
  </scstep>
  <scstep>
   <time name="dav">   25.58   25.65</time>
   <time name="total">   26.38   26.45</time>
   <energy>
    <i name="e_fr_energy">   -173.33670097 </i>
    <i name="e_wo_entrp">   -173.00024322 </i>
    <i name="e_0_energy">   -173.16847210 </i>
   </energy>
  </scstep>
  <scstep>
   <time name="dav">   24.28   24.33</time>
   <time name="total">   25.10   25.16</time>
   <energy>
    <i name="e_fr_energy">   -171.66658465 </i>
    <i name="e_wo_entrp">   -171.32950346 </i>
    <i name="e_0_energy">   -171.49804406 </i>
   </energy>
  </scstep>
  <scstep>
   <time name="dav">   29.38   29.45</time>
   <time name="total">   30.23   30.31</time>
   <energy>
    <i name="e_fr_energy">   -171.66990085 </i>
    <i name="e_wo_entrp">   -171.31416485 </i>
    <i name="e_0_energy">   -171.49203285 </i>
   </energy>
  </scstep>
  <scstep>
   <time name="dav">   28.80   28.87</time>
   <time name="total">   29.56   29.64</time>
   <energy>
    <i name="e_fr_energy">   -171.63563738 </i>
    <i name="e_wo_entrp">   -171.29303937 </i>
    <i name="e_0_energy">   -171.46433837 </i>
   </energy>
  </scstep>
  <scstep>
   <time name="dav">   29.82   29.89</time>
   <time name="total">   30.60   30.68</time>
   <energy>
    <i name="e_fr_energy">   -171.62947197 </i>
    <i name="e_wo_entrp">   -171.28677247 </i>
    <i name="e_0_energy">   -171.45812222 </i>
   </energy>
  </scstep>
  <scstep>
   <time name="dav">   28.90   28.97</time>
   <time name="total">   29.62   29.70</time>
   <energy>
    <i name="e_fr_energy">   -171.62869371 </i>
    <i name="e_wo_entrp">   -171.28584866 </i>
    <i name="e_0_energy">   -171.45727119 </i>
   </energy>
  </scstep>
  <scstep>
   <time name="dav">   29.34   29.41</time>
   <time name="total">   30.05   30.13</time>
   <energy>
    <i name="e_fr_energy">   -171.62867413 </i>
    <i name="e_wo_entrp">   -171.28523214 </i>
    <i name="e_0_energy">   -171.45695314 </i>
   </energy>
  </scstep>
  <scstep>
   <time name="dav">   22.16   22.21</time>
   <time name="total">   22.24   22.29</time>
   <energy>
    <i name="alphaZ">     75.07476689 </i>
    <i name="ewald">  50056.93121951 </i>
    <i name="hartreedc"> -56646.53667880 </i>
    <i name="XCdc">     52.58785481 </i>
    <i name="pawpsdc">   4563.76312979 </i>
    <i name="pawaedc">  -4331.33775361 </i>
    <i name="eentropy">     -0.34323136 </i>
    <i name="bandstr">  -1416.99238840 </i>
    <i name="atom">   7475.22437441 </i>
    <i name="e_fr_energy">   -171.62870676 </i>
    <i name="e_wo_entrp">   -171.28547540 </i>
    <i name="e_0_energy">   -171.45709108 </i>
   </energy>
  </scstep>
  <structure>
   <crystal>
    <varray name="basis" >
     <v>       8.16089566       4.72633059       0.00000000 </v>
     <v>      -8.16089553       4.72633082       0.00000000 </v>
     <v>       0.00000000       0.00000000      30.00000000 </v>
    </varray>
    <i name="volume">   2314.26548476 </i>
    <varray name="rec_basis" >
     <v>       0.06126779       0.10579031       0.00000000 </v>
     <v>      -0.06126778       0.10579031       0.00000000 </v>
     <v>       0.00000000       0.00000000       0.03333333 </v>
    </varray>
   </crystal>
   <varray name="positions" >
    <v>       0.00002073       0.00002073       0.00000000 </v>
    <v>       1.00002073       0.33335408       0.00000000 </v>
    <v>       0.00002073       0.66668742       0.00000000 </v>
    <v>       0.33335408       0.00002073       0.00000000 </v>
    <v>       0.33335408       0.33335408       0.00000000 </v>
    <v>       0.33335408       0.66668742       0.00000000 </v>
    <v>       0.66668742       0.00002073       0.00000000 </v>
    <v>       0.66668742       0.33335408       0.00000000 </v>
    <v>       0.66668742       0.66668742       0.00000000 </v>
    <v>       0.11081929       0.22229490       0.95520522 </v>
    <v>       0.22229490       0.11081929       0.04479477 </v>
    <v>       0.11081929       0.55562824       0.95520522 </v>
    <v>       0.22229490       0.44415263       0.04479477 </v>
    <v>       0.11081929       0.88896156       0.95520522 </v>
    <v>       0.22229490       0.77748598       0.04479477 </v>
    <v>       0.44415263       0.22229490       0.95520522 </v>
    <v>       0.55562824       0.11081929       0.04479477 </v>
    <v>       0.44415263       0.55562824       0.95520522 </v>
    <v>       0.55562824       0.44415263       0.04479477 </v>
    <v>       0.44415263       0.88896156       0.95520522 </v>
    <v>       0.55562824       0.77748598       0.04479477 </v>
    <v>       0.77748598       0.22229490       0.95520522 </v>
    <v>       0.88896156       0.11081929       0.04479477 </v>
    <v>       0.77748598       0.55562824       0.95520522 </v>
    <v>       0.88896156       0.44415263       0.04479477 </v>
    <v>       0.77748598       0.88896156       0.95520522 </v>
    <v>       0.88896156       0.77748598       0.04479477 </v>
   </varray>
  </structure>
  <varray name="forces" >
   <v>      -0.00000000      -0.00308862      -0.00000000 </v>
   <v>      -0.00000000      -0.00308862      -0.00000000 </v>
   <v>      -0.00000000      -0.00308862      -0.00000000 </v>
   <v>      -0.00000000      -0.00308862      -0.00000000 </v>
   <v>      -0.00000000      -0.00308862      -0.00000000 </v>
   <v>      -0.00000000      -0.00308862      -0.00000000 </v>
   <v>      -0.00000000      -0.00308862      -0.00000000 </v>
   <v>      -0.00000000      -0.00308862      -0.00000000 </v>
   <v>      -0.00000000      -0.00308862      -0.00000000 </v>
   <v>       0.04269873       0.00154431      -1.46068388 </v>
   <v>      -0.04269873       0.00154431       1.46068388 </v>
   <v>       0.04269873       0.00154431      -1.46068388 </v>
   <v>      -0.04269873       0.00154431       1.46068388 </v>
   <v>       0.04269873       0.00154431      -1.46068388 </v>
   <v>      -0.04269873       0.00154431       1.46068388 </v>
   <v>       0.04269873       0.00154431      -1.46068388 </v>
   <v>      -0.04269873       0.00154431       1.46068388 </v>
   <v>       0.04269873       0.00154431      -1.46068388 </v>
   <v>      -0.04269873       0.00154431       1.46068388 </v>
   <v>       0.04269873       0.00154431      -1.46068388 </v>
   <v>      -0.04269873       0.00154431       1.46068388 </v>
   <v>       0.04269873       0.00154431      -1.46068388 </v>
   <v>      -0.04269873       0.00154431       1.46068388 </v>
   <v>       0.04269873       0.00154431      -1.46068388 </v>
   <v>      -0.04269873       0.00154431       1.46068388 </v>
   <v>       0.04269873       0.00154431      -1.46068388 </v>
   <v>      -0.04269873       0.00154431       1.46068388 </v>
  </varray>
  <varray name="stress" >
   <v>       5.36687137      -0.00000002      -0.71979320 </v>
   <v>      -0.00000002       4.24550003       0.00000001 </v>
   <v>      -0.71979319       0.00000001      23.55596993 </v>
  </varray>
  <energy>
   <i name="e_fr_energy">   -171.62870676 </i>
   <i name="e_wo_entrp">   -171.45709108 </i>
   <i name="e_0_energy">     -0.34323136 </i>
  </energy>
  <time name="totalsc">  286.28  286.99</time>
 </calculation>
 <calculation>
  <scstep>
   <time name="dav">   22.98   23.03</time>
   <time name="total">   23.70   23.76</time>
   <energy>
    <i name="alphaZ">     73.66700294 </i>
    <i name="ewald">  48433.41578467 </i>
    <i name="hartreedc"> -55028.83192370 </i>
    <i name="XCdc">     48.06714074 </i>
    <i name="pawpsdc">   4563.48486933 </i>
    <i name="pawaedc">  -4331.03389146 </i>
    <i name="eentropy">     -0.37670473 </i>
    <i name="bandstr">  -1405.55802179 </i>
    <i name="atom">   7475.22437441 </i>
    <i name="e_fr_energy">   -171.94136959 </i>
    <i name="e_wo_entrp">   -171.56466486 </i>
    <i name="e_0_energy">   -171.75301723 </i>
   </energy>
  </scstep>
  <scstep>
   <time name="dav">   29.23   29.30</time>
   <time name="total">   29.99   30.07</time>
   <energy>
    <i name="e_fr_energy">   -172.59350414 </i>
    <i name="e_wo_entrp">   -172.21678109 </i>
    <i name="e_0_energy">   -172.40514261 </i>
   </energy>
  </scstep>
  <scstep>
   <time name="dav">   29.43   29.50</time>
   <time name="total">   30.24   30.31</time>
   <energy>
    <i name="e_fr_energy">   -172.53227924 </i>
    <i name="e_wo_entrp">   -172.16393024 </i>
    <i name="e_0_energy">   -172.34810474 </i>
   </energy>
  </scstep>
  <scstep>
   <time name="dav">   29.94   30.02</time>
   <time name="total">   30.77   30.86</time>
   <energy>
    <i name="e_fr_energy">   -172.49453055 </i>
    <i name="e_wo_entrp">   -172.12142747 </i>
    <i name="e_0_energy">   -172.30797901 </i>
   </energy>
  </scstep>
  <scstep>
   <time name="dav">   30.00   30.07</time>
   <time name="total">   30.73   30.81</time>
   <energy>
    <i name="e_fr_energy">   -172.46124451 </i>
    <i name="e_wo_entrp">   -172.09479501 </i>
    <i name="e_0_energy">   -172.27801976 </i>
   </energy>
  </scstep>
  <scstep>
   <time name="dav">   29.45   29.52</time>
   <time name="total">   30.21   30.28</time>
   <energy>
    <i name="e_fr_energy">   -172.46021634 </i>
    <i name="e_wo_entrp">   -172.09289144 </i>
    <i name="e_0_energy">   -172.27655389 </i>
   </energy>
  </scstep>
  <scstep>
   <time name="dav">   30.08   30.16</time>
   <time name="total">   30.90   30.98</time>
   <energy>
    <i name="e_fr_energy">   -172.46013848 </i>
    <i name="e_wo_entrp">   -172.09305770 </i>
    <i name="e_0_energy">   -172.27659809 </i>
   </energy>
  </scstep>
  <scstep>
   <time name="dav">   16.99   17.03</time>
   <time name="total">   17.08   17.12</time>
   <energy>
    <i name="alphaZ">     73.66700294 </i>
    <i name="ewald">  48433.41578467 </i>
    <i name="hartreedc"> -55039.92581411 </i>
    <i name="XCdc">     49.07274045 </i>
    <i name="pawpsdc">   4411.42246694 </i>
    <i name="pawaedc">  -4176.49995809 </i>
    <i name="eentropy">     -0.36713711 </i>
    <i name="bandstr">  -1398.46962889 </i>
    <i name="atom">   7475.22437441 </i>
    <i name="e_fr_energy">   -172.46016878 </i>
    <i name="e_wo_entrp">   -172.09303167 </i>
    <i name="e_0_energy">   -172.27660022 </i>
   </energy>
  </scstep>
  <structure>
   <crystal>
    <varray name="basis" >
     <v>       8.24756251       4.76603576       0.00000000 </v>
     <v>      -8.24756238       4.76603598       0.00000000 </v>
     <v>       0.00000000       0.00000000      30.00000000 </v>
    </varray>
    <i name="volume">   2358.49070611 </i>
    <varray name="rec_basis" >
     <v>       0.06062397       0.10490899       0.00000000 </v>
     <v>      -0.06062397       0.10490899       0.00000000 </v>
     <v>       0.00000000       0.00000000       0.03333333 </v>
    </varray>
   </crystal>
   <varray name="positions" >
    <v>       0.00000865       0.00000865      -0.00000000 </v>
    <v>       1.00000865       0.33334199      -0.00000000 </v>
    <v>       0.00000865       0.66667533      -0.00000000 </v>
    <v>       0.33334199       0.00000865      -0.00000000 </v>
    <v>       0.33334199       0.33334199      -0.00000000 </v>
    <v>       0.33334199       0.66667533      -0.00000000 </v>
    <v>       0.66667533       0.00000865      -0.00000000 </v>
    <v>       0.66667533       0.33334199      -0.00000000 </v>
    <v>       0.66667533       0.66667533      -0.00000000 </v>
    <v>       0.11092209       0.22220418       0.95340432 </v>
    <v>       0.22220418       0.11092209       0.04659567 </v>
    <v>       0.11092209       0.55553752       0.95340432 </v>
    <v>       0.22220418       0.44425544       0.04659567 </v>
    <v>       0.11092209       0.88887084       0.95340432 </v>
    <v>       0.22220418       0.77758878       0.04659567 </v>
    <v>       0.44425544       0.22220418       0.95340432 </v>
    <v>       0.55553752       0.11092209       0.04659567 </v>
    <v>       0.44425544       0.55553752       0.95340432 </v>
    <v>       0.55553752       0.44425544       0.04659567 </v>
    <v>       0.44425544       0.88887084       0.95340432 </v>
    <v>       0.55553752       0.77758878       0.04659567 </v>
    <v>       0.77758878       0.22220418       0.95340432 </v>
    <v>       0.88887084       0.11092209       0.04659567 </v>
    <v>       0.77758878       0.55553752       0.95340432 </v>
    <v>       0.88887084       0.44425544       0.04659567 </v>
    <v>       0.77758878       0.88887084       0.95340432 </v>
    <v>       0.88887084       0.77758878       0.04659567 </v>
   </varray>
  </structure>
  <varray name="forces" >
   <v>      -0.00000000      -0.00172861      -0.00000000 </v>
   <v>      -0.00000000      -0.00172861      -0.00000000 </v>
   <v>      -0.00000000      -0.00172861      -0.00000000 </v>
   <v>      -0.00000000      -0.00172861      -0.00000000 </v>
   <v>      -0.00000000      -0.00172861      -0.00000000 </v>
   <v>      -0.00000000      -0.00172861      -0.00000000 </v>
   <v>      -0.00000000      -0.00172861      -0.00000000 </v>
   <v>      -0.00000000      -0.00172861      -0.00000000 </v>
   <v>      -0.00000000      -0.00172861      -0.00000000 </v>
   <v>       0.01316438       0.00086430      -0.37356647 </v>
   <v>      -0.01316438       0.00086431       0.37356647 </v>
   <v>       0.01316438       0.00086430      -0.37356647 </v>
   <v>      -0.01316438       0.00086431       0.37356647 </v>
   <v>       0.01316438       0.00086430      -0.37356647 </v>
   <v>      -0.01316438       0.00086431       0.37356647 </v>
   <v>       0.01316438       0.00086430      -0.37356647 </v>
   <v>      -0.01316438       0.00086431       0.37356647 </v>
   <v>       0.01316438       0.00086430      -0.37356647 </v>
   <v>      -0.01316438       0.00086431       0.37356647 </v>
   <v>       0.01316438       0.00086430      -0.37356647 </v>
   <v>      -0.01316438       0.00086431       0.37356647 </v>
   <v>       0.01316438       0.00086430      -0.37356647 </v>
   <v>      -0.01316438       0.00086431       0.37356647 </v>
   <v>       0.01316438       0.00086430      -0.37356647 </v>
   <v>      -0.01316438       0.00086431       0.37356647 </v>
   <v>       0.01316438       0.00086430      -0.37356647 </v>
   <v>      -0.01316438       0.00086431       0.37356647 </v>
  </varray>
  <varray name="stress" >
   <v>      -7.56592714      -0.00000000      -0.22693828 </v>
   <v>      -0.00000000      -7.86084059       0.00000000 </v>
   <v>      -0.22693824       0.00000000       5.55380655 </v>
  </varray>
  <energy>
   <i name="e_fr_energy">   -172.46016878 </i>
   <i name="e_wo_entrp">   -172.27660022 </i>
   <i name="e_0_energy">     -0.36713711 </i>
  </energy>
  <time name="totalsc">  262.22  262.88</time>
 </calculation>
 <calculation>
  <scstep>
   <time name="dav">   27.30   27.37</time>
   <time name="total">   28.04   28.11</time>
   <energy>
    <i name="alphaZ">     75.25892832 </i>
    <i name="ewald">  49403.46553016 </i>
    <i name="hartreedc"> -56034.35800061 </i>
    <i name="XCdc">     50.87641458 </i>
    <i name="pawpsdc">   4410.71622774 </i>
    <i name="pawaedc">  -4175.79242236 </i>
    <i name="eentropy">     -0.35062703 </i>
    <i name="bandstr">  -1377.99473742 </i>
    <i name="atom">   7475.22437441 </i>
    <i name="e_fr_energy">   -172.95431219 </i>
    <i name="e_wo_entrp">   -172.60368516 </i>
    <i name="e_0_energy">   -172.77899868 </i>
   </energy>
  </scstep>
  <scstep>
   <time name="dav">   29.38   29.45</time>
   <time name="total">   30.19   30.26</time>
   <energy>
    <i name="e_fr_energy">   -172.82528943 </i>
    <i name="e_wo_entrp">   -172.47703833 </i>
    <i name="e_0_energy">   -172.65116388 </i>
   </energy>
  </scstep>
  <scstep>
   <time name="dav">   31.82   31.90</time>
   <time name="total">   32.71   32.80</time>
   <energy>
    <i name="e_fr_energy">   -172.84249852 </i>
    <i name="e_wo_entrp">   -172.49526243 </i>
    <i name="e_0_energy">   -172.66888048 </i>
   </energy>
  </scstep>
  <scstep>
   <time name="dav">   33.00   33.08</time>
   <time name="total">   33.81   33.90</time>
   <energy>
    <i name="e_fr_energy">   -172.77328902 </i>
    <i name="e_wo_entrp">   -172.42506623 </i>
    <i name="e_0_energy">   -172.59917762 </i>
   </energy>
  </scstep>
  <scstep>
   <time name="dav">   28.14   28.21</time>
   <time name="total">   28.97   29.05</time>
   <energy>
    <i name="e_fr_energy">   -172.77300987 </i>
    <i name="e_wo_entrp">   -172.42584667 </i>
    <i name="e_0_energy">   -172.59942827 </i>
   </energy>
  </scstep>
  <scstep>
   <time name="dav">   29.01   29.08</time>
   <time name="total">   29.09   29.16</time>
   <energy>
    <i name="alphaZ">     75.25892832 </i>
    <i name="ewald">  49403.46553016 </i>
    <i name="hartreedc"> -56016.54447782 </i>
    <i name="XCdc">     49.80313150 </i>
    <i name="pawpsdc">   4429.02876244 </i>
    <i name="pawaedc">  -4194.20990532 </i>
    <i name="eentropy">     -0.34763665 </i>
    <i name="bandstr">  -1394.45176509 </i>
    <i name="atom">   7475.22437441 </i>
    <i name="e_fr_energy">   -172.77305806 </i>
    <i name="e_wo_entrp">   -172.42542140 </i>
    <i name="e_0_energy">   -172.59923973 </i>
   </energy>
  </scstep>
  <structure>
   <crystal>
    <varray name="basis" >
     <v>       8.16287217       4.71362348       0.00000000 </v>
     <v>      -8.16287204       4.71362370       0.00000000 </v>
     <v>       0.00000000       0.00000000      30.00000000 </v>
    </varray>
    <i name="volume">   2308.60238993 </i>
    <varray name="rec_basis" >
     <v>       0.06125295       0.10607550       0.00000000 </v>
     <v>      -0.06125295       0.10607551       0.00000000 </v>
     <v>       0.00000000       0.00000000       0.03333333 </v>
    </varray>
   </crystal>
   <varray name="positions" >
    <v>       0.00000201       0.00000201      -0.00000000 </v>
    <v>       1.00000201       0.33333536      -0.00000000 </v>
    <v>       0.00000201       0.66666870      -0.00000000 </v>
    <v>       0.33333536       0.00000201      -0.00000000 </v>
    <v>       0.33333536       0.33333536      -0.00000000 </v>
    <v>       0.33333536       0.66666870      -0.00000000 </v>
    <v>       0.66666870       0.00000201      -0.00000000 </v>
    <v>       0.66666870       0.33333536      -0.00000000 </v>
    <v>       0.66666870       0.66666870      -0.00000000 </v>
    <v>       0.11096013       0.22217277       0.95282557 </v>
    <v>       0.22217277       0.11096013       0.04717442 </v>
    <v>       0.11096013       0.55550612       0.95282557 </v>
    <v>       0.22217277       0.44429348       0.04717442 </v>
    <v>       0.11096013       0.88883943       0.95282557 </v>
    <v>       0.22217277       0.77762682       0.04717442 </v>
    <v>       0.44429348       0.22217277       0.95282557 </v>
    <v>       0.55550612       0.11096013       0.04717442 </v>
    <v>       0.44429348       0.55550612       0.95282557 </v>
    <v>       0.55550612       0.44429348       0.04717442 </v>
    <v>       0.44429348       0.88883943       0.95282557 </v>
    <v>       0.55550612       0.77762682       0.04717442 </v>
    <v>       0.77762682       0.22217277       0.95282557 </v>
    <v>       0.88883943       0.11096013       0.04717442 </v>
    <v>       0.77762682       0.55550612       0.95282557 </v>
    <v>       0.88883943       0.44429348       0.04717442 </v>
    <v>       0.77762682       0.88883943       0.95282557 </v>
    <v>       0.88883943       0.77762682       0.04717442 </v>
   </varray>
  </structure>
  <varray name="forces" >
   <v>      -0.00000000      -0.00285060       0.00000000 </v>
   <v>      -0.00000000      -0.00285060       0.00000000 </v>
   <v>      -0.00000000      -0.00285060       0.00000000 </v>
   <v>      -0.00000000      -0.00285060       0.00000000 </v>
   <v>      -0.00000000      -0.00285060       0.00000000 </v>
   <v>      -0.00000000      -0.00285060       0.00000000 </v>
   <v>      -0.00000000      -0.00285060       0.00000000 </v>
   <v>      -0.00000000      -0.00285060       0.00000000 </v>
   <v>      -0.00000000      -0.00285060       0.00000000 </v>
   <v>       0.00691870       0.00142530      -0.34321479 </v>
   <v>      -0.00691870       0.00142530       0.34321479 </v>
   <v>       0.00691870       0.00142530      -0.34321479 </v>
   <v>      -0.00691870       0.00142530       0.34321479 </v>
   <v>       0.00691870       0.00142530      -0.34321479 </v>
   <v>      -0.00691870       0.00142530       0.34321479 </v>
   <v>       0.00691870       0.00142530      -0.34321479 </v>
   <v>      -0.00691870       0.00142530       0.34321479 </v>
   <v>       0.00691870       0.00142530      -0.34321479 </v>
   <v>      -0.00691870       0.00142530       0.34321479 </v>
   <v>       0.00691870       0.00142530      -0.34321479 </v>
   <v>      -0.00691870       0.00142530       0.34321479 </v>
   <v>       0.00691870       0.00142530      -0.34321479 </v>
   <v>      -0.00691870       0.00142530       0.34321479 </v>
   <v>       0.00691870       0.00142530      -0.34321479 </v>
   <v>      -0.00691870       0.00142530       0.34321479 </v>
   <v>       0.00691870       0.00142530      -0.34321479 </v>
   <v>      -0.00691870       0.00142530       0.34321479 </v>
  </varray>
  <varray name="stress" >
   <v>      -5.30577530      -0.00000000      -0.12289304 </v>
   <v>      -0.00000000      -5.39687812       0.00000000 </v>
   <v>      -0.12289299       0.00000000       4.95701151 </v>
  </varray>
  <energy>
   <i name="e_fr_energy">   -172.77305806 </i>
   <i name="e_wo_entrp">   -172.59923973 </i>
   <i name="e_0_energy">     -0.34763665 </i>
  </energy>
  <time name="totalsc">  221.49  222.04</time>
 </calculation>
 <calculation>
  <scstep>
   <time name="dav">   25.00   25.06</time>
   <time name="total">   25.75   25.81</time>
   <energy>
    <i name="alphaZ">     78.73448350 </i>
    <i name="ewald">  51348.31969676 </i>
    <i name="hartreedc"> -58018.53904104 </i>
    <i name="XCdc">     53.03327352 </i>
    <i name="pawpsdc">   4431.45489351 </i>
    <i name="pawaedc">  -4196.69509886 </i>
    <i name="eentropy">     -0.33091286 </i>
    <i name="bandstr">  -1344.93464664 </i>
    <i name="atom">   7475.22437441 </i>
    <i name="e_fr_energy">   -173.73297770 </i>
    <i name="e_wo_entrp">   -173.40206484 </i>
    <i name="e_0_energy">   -173.56752127 </i>
   </energy>
  </scstep>
  <scstep>
   <time name="dav">   28.98   29.05</time>
   <time name="total">   29.69   29.77</time>
   <energy>
    <i name="e_fr_energy">   -173.41766621 </i>
    <i name="e_wo_entrp">   -173.08473336 </i>
    <i name="e_0_energy">   -173.25119979 </i>
   </energy>
  </scstep>
  <scstep>
   <time name="dav">   30.72   30.79</time>
   <time name="total">   31.42   31.49</time>
   <energy>
    <i name="e_fr_energy">   -173.51940778 </i>
    <i name="e_wo_entrp">   -173.20475494 </i>
    <i name="e_0_energy">   -173.36208136 </i>
   </energy>
  </scstep>
  <scstep>
   <time name="dav">   30.25   30.33</time>
   <time name="total">   30.98   31.06</time>
   <energy>
    <i name="e_fr_energy">   -173.16611024 </i>
    <i name="e_wo_entrp">   -172.83924216 </i>
    <i name="e_0_energy">   -173.00267620 </i>
   </energy>
  </scstep>
  <scstep>
   <time name="dav">   28.51   28.57</time>
   <time name="total">   29.31   29.38</time>
   <energy>
    <i name="e_fr_energy">   -173.15899246 </i>
    <i name="e_wo_entrp">   -172.83372301 </i>
    <i name="e_0_energy">   -172.99635774 </i>
   </energy>
  </scstep>
  <scstep>
   <time name="dav">   29.48   29.55</time>
   <time name="total">   30.31   30.38</time>
   <energy>
    <i name="e_fr_energy">   -173.15870308 </i>
    <i name="e_wo_entrp">   -172.83303297 </i>
    <i name="e_0_energy">   -172.99586803 </i>
   </energy>
  </scstep>
  <scstep>
   <time name="dav">   30.41   30.48</time>
   <time name="total">   31.19   31.27</time>
   <energy>
    <i name="e_fr_energy">   -173.15848805 </i>
    <i name="e_wo_entrp">   -172.83241733 </i>
    <i name="e_0_energy">   -172.99545269 </i>
   </energy>
  </scstep>
  <scstep>
   <time name="dav">   17.48   17.52</time>
   <time name="total">   17.56   17.61</time>
   <energy>
    <i name="alphaZ">     78.73448350 </i>
    <i name="ewald">  51348.31969676 </i>
    <i name="hartreedc"> -57982.54664127 </i>
    <i name="XCdc">     50.82862677 </i>
    <i name="pawpsdc">   4447.39229771 </i>
    <i name="pawaedc">  -4212.48689827 </i>
    <i name="eentropy">     -0.32588692 </i>
    <i name="bandstr">  -1378.29853291 </i>
    <i name="atom">   7475.22437441 </i>
    <i name="e_fr_energy">   -173.15848023 </i>
    <i name="e_wo_entrp">   -172.83259331 </i>
    <i name="e_0_energy">   -172.99553677 </i>
   </energy>
  </scstep>
  <structure>
   <crystal>
    <varray name="basis" >
     <v>       7.98318979       4.60696037       0.00000000 </v>
     <v>      -7.98318966       4.60696059       0.00000000 </v>
     <v>       0.00000000       0.00000000      30.00000000 </v>
    </varray>
    <i name="volume">   2206.69437424 </i>
    <varray name="rec_basis" >
     <v>       0.06263161       0.10853143       0.00000000 </v>
     <v>      -0.06263161       0.10853143       0.00000000 </v>
     <v>       0.00000000       0.00000000       0.03333333 </v>
    </varray>
   </crystal>
   <varray name="positions" >
    <v>      -0.00003909      -0.00003909      -0.00000000 </v>
    <v>       0.99996091       0.33329425      -0.00000000 </v>
    <v>      -0.00003909       0.66662760      -0.00000000 </v>
    <v>       0.33329425      -0.00003909      -0.00000000 </v>
    <v>       0.33329425       0.33329425      -0.00000000 </v>
    <v>       0.33329425       0.66662760      -0.00000000 </v>
    <v>       0.66662760      -0.00003909      -0.00000000 </v>
    <v>       0.66662760       0.33329425      -0.00000000 </v>
    <v>       0.66662760       0.66662760      -0.00000000 </v>
    <v>       0.11103657       0.22213745       0.95114707 </v>
    <v>       0.22213745       0.11103657       0.04885292 </v>
    <v>       0.11103657       0.55547079       0.95114707 </v>
    <v>       0.22213745       0.44436991       0.04885292 </v>
    <v>       0.11103657       0.88880410       0.95114707 </v>
    <v>       0.22213745       0.77770325       0.04885292 </v>
    <v>       0.44436991       0.22213745       0.95114707 </v>
    <v>       0.55547079       0.11103657       0.04885292 </v>
    <v>       0.44436991       0.55547079       0.95114707 </v>
    <v>       0.55547079       0.44436991       0.04885292 </v>
    <v>       0.44436991       0.88880410       0.95114707 </v>
    <v>       0.55547079       0.77770325       0.04885292 </v>
    <v>       0.77770325       0.22213745       0.95114707 </v>
    <v>       0.88880410       0.11103657       0.04885292 </v>
    <v>       0.77770325       0.55547079       0.95114707 </v>
    <v>       0.88880410       0.44436991       0.04885292 </v>
    <v>       0.77770325       0.88880410       0.95114707 </v>
    <v>       0.88880410       0.77770325       0.04885292 </v>
   </varray>
  </structure>
  <varray name="forces" >
   <v>      -0.00000000      -0.00203536       0.00000000 </v>
   <v>      -0.00000000      -0.00203536       0.00000000 </v>
   <v>      -0.00000000      -0.00203536       0.00000000 </v>
   <v>      -0.00000000      -0.00203536       0.00000000 </v>
   <v>      -0.00000000      -0.00203536       0.00000000 </v>
   <v>      -0.00000000      -0.00203536       0.00000000 </v>
   <v>      -0.00000000      -0.00203536       0.00000000 </v>
   <v>      -0.00000000      -0.00203536       0.00000000 </v>
   <v>      -0.00000000      -0.00203536       0.00000000 </v>
   <v>      -0.00194014       0.00101768      -0.07502836 </v>
   <v>       0.00194014       0.00101768       0.07502836 </v>
   <v>      -0.00194014       0.00101768      -0.07502836 </v>
   <v>       0.00194014       0.00101768       0.07502836 </v>
   <v>      -0.00194014       0.00101768      -0.07502836 </v>
   <v>       0.00194014       0.00101768       0.07502836 </v>
   <v>      -0.00194014       0.00101768      -0.07502836 </v>
   <v>       0.00194014       0.00101768       0.07502836 </v>
   <v>      -0.00194014       0.00101768      -0.07502836 </v>
   <v>       0.00194014       0.00101768       0.07502836 </v>
   <v>      -0.00194014       0.00101768      -0.07502836 </v>
   <v>       0.00194014       0.00101768       0.07502836 </v>
   <v>      -0.00194014       0.00101768      -0.07502836 </v>
   <v>       0.00194014       0.00101768       0.07502836 </v>
   <v>      -0.00194014       0.00101768      -0.07502836 </v>
   <v>       0.00194014       0.00101768       0.07502836 </v>
   <v>      -0.00194014       0.00101768      -0.07502836 </v>
   <v>       0.00194014       0.00101768       0.07502836 </v>
  </varray>
  <varray name="stress" >
   <v>      -1.11872800       0.00000000       0.03828909 </v>
   <v>       0.00000000      -0.93896429      -0.00000000 </v>
   <v>       0.03828903      -0.00000000       0.33073144 </v>
  </varray>
  <energy>
   <i name="e_fr_energy">   -173.15848023 </i>
   <i name="e_wo_entrp">   -172.99553677 </i>
   <i name="e_0_energy">     -0.32588692 </i>
  </energy>
  <time name="totalsc">  264.83  265.49</time>
 </calculation>
 <calculation>
  <scstep>
   <time name="dav">   25.99   26.06</time>
   <time name="total">   26.82   26.89</time>
   <energy>
    <i name="alphaZ">     79.56059539 </i>
    <i name="ewald">  51796.70127084 </i>
    <i name="hartreedc"> -58444.58630757 </i>
    <i name="XCdc">     51.53704464 </i>
    <i name="pawpsdc">   4446.95942216 </i>
    <i name="pawaedc">  -4212.02908591 </i>
    <i name="eentropy">     -0.31747692 </i>
    <i name="bandstr">  -1366.25440662 </i>
    <i name="atom">   7475.22437441 </i>
    <i name="e_fr_energy">   -173.20456957 </i>
    <i name="e_wo_entrp">   -172.88709265 </i>
    <i name="e_0_energy">   -173.04583111 </i>
   </energy>
  </scstep>
  <scstep>
   <time name="dav">   29.18   29.25</time>
   <time name="total">   29.99   30.06</time>
   <energy>
    <i name="e_fr_energy">   -173.19041096 </i>
    <i name="e_wo_entrp">   -172.87091237 </i>
    <i name="e_0_energy">   -173.03066167 </i>
   </energy>
  </scstep>
  <scstep>
   <time name="dav">   30.48   30.55</time>
   <time name="total">   31.22   31.29</time>
   <energy>
    <i name="e_fr_energy">   -173.19676314 </i>
    <i name="e_wo_entrp">   -172.88452128 </i>
    <i name="e_0_energy">   -173.04064221 </i>
   </energy>
  </scstep>
  <scstep>
   <time name="dav">   30.45   30.53</time>
   <time name="total">   31.17   31.25</time>
   <energy>
    <i name="e_fr_energy">   -173.17191758 </i>
    <i name="e_wo_entrp">   -172.85512229 </i>
    <i name="e_0_energy">   -173.01351993 </i>
   </energy>
  </scstep>
  <scstep>
   <time name="dav">   25.85   25.92</time>
   <time name="total">   26.64   26.70</time>
   <energy>
    <i name="e_fr_energy">   -173.17181140 </i>
    <i name="e_wo_entrp">   -172.85521897 </i>
    <i name="e_0_energy">   -173.01351519 </i>
   </energy>
  </scstep>
  <scstep>
   <time name="dav">   25.88   25.94</time>
   <time name="total">   25.96   26.02</time>
   <energy>
    <i name="alphaZ">     79.56059539 </i>
    <i name="ewald">  51796.70127084 </i>
    <i name="hartreedc"> -58436.67361631 </i>
    <i name="XCdc">     51.03554166 </i>
    <i name="pawpsdc">   4447.18969876 </i>
    <i name="pawaedc">  -4212.16273670 </i>
    <i name="eentropy">     -0.31654857 </i>
    <i name="bandstr">  -1373.73041022 </i>
    <i name="atom">   7475.22437441 </i>
    <i name="e_fr_energy">   -173.17183073 </i>
    <i name="e_wo_entrp">   -172.85528216 </i>
    <i name="e_0_energy">   -173.01355645 </i>
   </energy>
  </scstep>
  <structure>
   <crystal>
    <varray name="basis" >
     <v>       7.93982586       4.58402431       0.00000000 </v>
     <v>      -7.93982573       4.58402452       0.00000000 </v>
     <v>       0.00000000       0.00000000      30.00000000 </v>
    </varray>
    <i name="volume">   2183.78131710 </i>
    <varray name="rec_basis" >
     <v>       0.06297368       0.10907446       0.00000000 </v>
     <v>      -0.06297367       0.10907446       0.00000000 </v>
     <v>       0.00000000       0.00000000       0.03333333 </v>
    </varray>
   </crystal>
   <varray name="positions" >
    <v>      -0.00005857      -0.00005857      -0.00000000 </v>
    <v>       0.99994143       0.33327478      -0.00000000 </v>
    <v>      -0.00005857       0.66660812      -0.00000000 </v>
    <v>       0.33327478      -0.00005857      -0.00000000 </v>
    <v>       0.33327478       0.33327478      -0.00000000 </v>
    <v>       0.33327478       0.66660812      -0.00000000 </v>
    <v>       0.66660812      -0.00005857      -0.00000000 </v>
    <v>       0.66660812       0.33327478      -0.00000000 </v>
    <v>       0.66660812       0.66660812      -0.00000000 </v>
    <v>       0.11104746       0.22214603       0.95073057 </v>
    <v>       0.22214603       0.11104746       0.04926942 </v>
    <v>       0.11104746       0.55547937       0.95073057 </v>
    <v>       0.22214603       0.44438080       0.04926942 </v>
    <v>       0.11104746       0.88881269       0.95073057 </v>
    <v>       0.22214603       0.77771414       0.04926942 </v>
    <v>       0.44438080       0.22214603       0.95073057 </v>
    <v>       0.55547937       0.11104746       0.04926942 </v>
    <v>       0.44438080       0.55547937       0.95073057 </v>
    <v>       0.55547937       0.44438080       0.04926942 </v>
    <v>       0.44438080       0.88881269       0.95073057 </v>
    <v>       0.55547937       0.77771414       0.04926942 </v>
    <v>       0.77771414       0.22214603       0.95073057 </v>
    <v>       0.88881269       0.11104746       0.04926942 </v>
    <v>       0.77771414       0.55547937       0.95073057 </v>
    <v>       0.88881269       0.44438080       0.04926942 </v>
    <v>       0.77771414       0.88881269       0.95073057 </v>
    <v>       0.88881269       0.77771414       0.04926942 </v>
   </varray>
  </structure>
  <varray name="forces" >
   <v>      -0.00000000      -0.00060545       0.00000000 </v>
   <v>      -0.00000000      -0.00060545       0.00000000 </v>
   <v>      -0.00000000      -0.00060545       0.00000000 </v>
   <v>      -0.00000000      -0.00060545       0.00000000 </v>
   <v>      -0.00000000      -0.00060545       0.00000000 </v>
   <v>      -0.00000000      -0.00060545       0.00000000 </v>
   <v>      -0.00000000      -0.00060545       0.00000000 </v>
   <v>      -0.00000000      -0.00060545       0.00000000 </v>
   <v>      -0.00000000      -0.00060545       0.00000000 </v>
   <v>      -0.00081091       0.00030272       0.01109910 </v>
   <v>       0.00081091       0.00030272      -0.01109910 </v>
   <v>      -0.00081091       0.00030272       0.01109910 </v>
   <v>       0.00081091       0.00030272      -0.01109910 </v>
   <v>      -0.00081091       0.00030272       0.01109910 </v>
   <v>       0.00081091       0.00030272      -0.01109910 </v>
   <v>      -0.00081091       0.00030272       0.01109910 </v>
   <v>       0.00081091       0.00030272      -0.01109910 </v>
   <v>      -0.00081091       0.00030272       0.01109910 </v>
   <v>       0.00081091       0.00030272      -0.01109910 </v>
   <v>      -0.00081091       0.00030272       0.01109910 </v>
   <v>       0.00081091       0.00030272      -0.01109910 </v>
   <v>      -0.00081091       0.00030272       0.01109910 </v>
   <v>       0.00081091       0.00030272      -0.01109910 </v>
   <v>      -0.00081091       0.00030272       0.01109910 </v>
   <v>       0.00081091       0.00030272      -0.01109910 </v>
   <v>      -0.00081091       0.00030272       0.01109910 </v>
   <v>       0.00081091       0.00030272      -0.01109910 </v>
  </varray>
  <varray name="stress" >
   <v>      -0.22106499       0.00000000       0.01625004 </v>
   <v>       0.00000000      -0.18921940      -0.00000000 </v>
   <v>       0.01625005      -0.00000000      -1.32542411 </v>
  </varray>
  <energy>
   <i name="e_fr_energy">   -173.17183073 </i>
   <i name="e_wo_entrp">   -173.01355645 </i>
   <i name="e_0_energy">     -0.31654857 </i>
  </energy>
  <time name="totalsc">  210.53  211.05</time>
 </calculation>
 <calculation>
  <scstep>
   <time name="dav">   26.42   26.48</time>
   <time name="total">   27.16   27.23</time>
   <energy>
    <i name="alphaZ">     79.70931229 </i>
    <i name="ewald">  51896.53628275 </i>
    <i name="hartreedc"> -58538.64709766 </i>
    <i name="XCdc">     51.23115207 </i>
    <i name="pawpsdc">   4448.09868607 </i>
    <i name="pawaedc">  -4213.08881572 </i>
    <i name="eentropy">     -0.31481061 </i>
    <i name="bandstr">  -1371.92185248 </i>
    <i name="atom">   7475.22437441 </i>
    <i name="e_fr_energy">   -173.17276887 </i>
    <i name="e_wo_entrp">   -172.85795827 </i>
    <i name="e_0_energy">   -173.01536357 </i>
   </energy>
  </scstep>
  <scstep>
   <time name="dav">   29.97   30.04</time>
   <time name="total">   30.77   30.85</time>
   <energy>
    <i name="e_fr_energy">   -173.17164296 </i>
    <i name="e_wo_entrp">   -172.85668812 </i>
    <i name="e_0_energy">   -173.01416554 </i>
   </energy>
  </scstep>
  <scstep>
   <time name="dav">   31.13   31.20</time>
   <time name="total">   31.88   31.96</time>
   <energy>
    <i name="e_fr_energy">   -173.17188115 </i>
    <i name="e_wo_entrp">   -172.85795161 </i>
    <i name="e_0_energy">   -173.01491638 </i>
   </energy>
  </scstep>
  <scstep>
   <time name="dav">   29.99   30.06</time>
   <time name="total">   30.69   30.77</time>
   <energy>
    <i name="e_fr_energy">   -173.17123143 </i>
    <i name="e_wo_entrp">   -172.85648849 </i>
    <i name="e_0_energy">   -173.01385996 </i>
   </energy>
  </scstep>
  <scstep>
   <time name="dav">   16.33   16.37</time>
   <time name="total">   16.40   16.44</time>
   <energy>
    <i name="alphaZ">     79.70931229 </i>
    <i name="ewald">  51896.53628275 </i>
    <i name="hartreedc"> -58537.54560620 </i>
    <i name="XCdc">     51.14092130 </i>
    <i name="pawpsdc">   4450.71932888 </i>
    <i name="pawaedc">  -4215.72890816 </i>
    <i name="eentropy">     -0.31472121 </i>
    <i name="bandstr">  -1372.91223350 </i>
    <i name="atom">   7475.22437441 </i>
    <i name="e_fr_energy">   -173.17124944 </i>
    <i name="e_wo_entrp">   -172.85652823 </i>
    <i name="e_0_energy">   -173.01388884 </i>
   </energy>
  </scstep>
  <structure>
   <crystal>
    <varray name="basis" >
     <v>       7.93205918       4.57995178       0.00000000 </v>
     <v>      -7.93205905       4.57995200       0.00000000 </v>
     <v>       0.00000000       0.00000000      30.00000000 </v>
    </varray>
    <i name="volume">   2179.70694751 </i>
    <varray name="rec_basis" >
     <v>       0.06303534       0.10917145       0.00000000 </v>
     <v>      -0.06303533       0.10917145       0.00000000 </v>
     <v>       0.00000000       0.00000000       0.03333333 </v>
    </varray>
   </crystal>
   <varray name="positions" >
    <v>      -0.00006339      -0.00006339      -0.00000000 </v>
    <v>       0.99993661       0.33326996      -0.00000000 </v>
    <v>      -0.00006339       0.66660330      -0.00000000 </v>
    <v>       0.33326996      -0.00006339      -0.00000000 </v>
    <v>       0.33326996       0.33326996      -0.00000000 </v>
    <v>       0.33326996       0.66660330      -0.00000000 </v>
    <v>       0.66660330      -0.00006339      -0.00000000 </v>
    <v>       0.66660330       0.33326996      -0.00000000 </v>
    <v>       0.66660330       0.66660330      -0.00000000 </v>
    <v>       0.11104802       0.22215028       0.95071058 </v>
    <v>       0.22215028       0.11104802       0.04928941 </v>
    <v>       0.11104802       0.55548363       0.95071058 </v>
    <v>       0.22215028       0.44438136       0.04928941 </v>
    <v>       0.11104802       0.88881694       0.95071058 </v>
    <v>       0.22215028       0.77771471       0.04928941 </v>
    <v>       0.44438136       0.22215028       0.95071058 </v>
    <v>       0.55548363       0.11104802       0.04928941 </v>
    <v>       0.44438136       0.55548363       0.95071058 </v>
    <v>       0.55548363       0.44438136       0.04928941 </v>
    <v>       0.44438136       0.88881694       0.95071058 </v>
    <v>       0.55548363       0.77771471       0.04928941 </v>
    <v>       0.77771471       0.22215028       0.95071058 </v>
    <v>       0.88881694       0.11104802       0.04928941 </v>
    <v>       0.77771471       0.55548363       0.95071058 </v>
    <v>       0.88881694       0.44438136       0.04928941 </v>
    <v>       0.77771471       0.88881694       0.95071058 </v>
    <v>       0.88881694       0.77771471       0.04928941 </v>
   </varray>
  </structure>
  <varray name="forces" >
   <v>      -0.00000000      -0.00022907       0.00000000 </v>
   <v>      -0.00000000      -0.00022907       0.00000000 </v>
   <v>      -0.00000000      -0.00022907       0.00000000 </v>
   <v>      -0.00000000      -0.00022907       0.00000000 </v>
   <v>      -0.00000000      -0.00022907       0.00000000 </v>
   <v>      -0.00000000      -0.00022907       0.00000000 </v>
   <v>      -0.00000000      -0.00022907       0.00000000 </v>
   <v>      -0.00000000      -0.00022907       0.00000000 </v>
   <v>      -0.00000000      -0.00022907       0.00000000 </v>
   <v>      -0.00035747       0.00011453      -0.00064398 </v>
   <v>       0.00035747       0.00011453       0.00064398 </v>
   <v>      -0.00035747       0.00011453      -0.00064398 </v>
   <v>       0.00035747       0.00011453       0.00064398 </v>
   <v>      -0.00035747       0.00011453      -0.00064398 </v>
   <v>       0.00035747       0.00011453       0.00064398 </v>
   <v>      -0.00035747       0.00011453      -0.00064398 </v>
   <v>       0.00035747       0.00011453       0.00064398 </v>
   <v>      -0.00035747       0.00011453      -0.00064398 </v>
   <v>       0.00035747       0.00011453       0.00064398 </v>
   <v>      -0.00035747       0.00011453      -0.00064398 </v>
   <v>       0.00035747       0.00011453       0.00064398 </v>
   <v>      -0.00035747       0.00011453      -0.00064398 </v>
   <v>       0.00035747       0.00011453       0.00064398 </v>
   <v>      -0.00035747       0.00011453      -0.00064398 </v>
   <v>       0.00035747       0.00011453       0.00064398 </v>
   <v>      -0.00035747       0.00011453      -0.00064398 </v>
   <v>       0.00035747       0.00011453       0.00064398 </v>
  </varray>
  <varray name="stress" >
   <v>       0.42512815      -0.00000000       0.00697519 </v>
   <v>      -0.00000000       0.42219254      -0.00000000 </v>
   <v>       0.00697530      -0.00000000      -0.88329633 </v>
  </varray>
  <energy>
   <i name="e_fr_energy">   -173.17124944 </i>
   <i name="e_wo_entrp">   -173.01388884 </i>
   <i name="e_0_energy">     -0.31472121 </i>
  </energy>
  <time name="totalsc">  176.04  176.47</time>
 </calculation>
 <calculation>
  <scstep>
   <time name="dav">   28.63   28.70</time>
   <time name="total">   29.39   29.46</time>
   <energy>
    <i name="alphaZ">     79.60754481 </i>
    <i name="ewald">  51832.03136080 </i>
    <i name="hartreedc"> -58471.80507286 </i>
    <i name="XCdc">     51.01996940 </i>
    <i name="pawpsdc">   4451.20684847 </i>
    <i name="pawaedc">  -4216.22846051 </i>
    <i name="eentropy">     -0.31596669 </i>
    <i name="bandstr">  -1373.91317222 </i>
    <i name="atom">   7475.22437441 </i>
    <i name="e_fr_energy">   -173.17257440 </i>
    <i name="e_wo_entrp">   -172.85660771 </i>
    <i name="e_0_energy">   -173.01459105 </i>
   </energy>
  </scstep>
  <scstep>
   <time name="dav">   29.70   29.77</time>
   <time name="total">   30.40   30.47</time>
   <energy>
    <i name="e_fr_energy">   -173.17207218 </i>
    <i name="e_wo_entrp">   -172.85629480 </i>
    <i name="e_0_energy">   -173.01418349 </i>
   </energy>
  </scstep>
  <scstep>
   <time name="dav">   29.11   29.18</time>
   <time name="total">   29.92   30.00</time>
   <energy>
    <i name="e_fr_energy">   -173.17220509 </i>
    <i name="e_wo_entrp">   -172.85561433 </i>
    <i name="e_0_energy">   -173.01390971 </i>
   </energy>
  </scstep>
  <scstep>
   <time name="dav">   26.40   26.46</time>
   <time name="total">   27.14   27.21</time>
   <energy>
    <i name="e_fr_energy">   -173.17183166 </i>
    <i name="e_wo_entrp">   -172.85581622 </i>
    <i name="e_0_energy">   -173.01382394 </i>
   </energy>
  </scstep>
  <scstep>
   <time name="dav">   15.55   15.59</time>
   <time name="total">   15.62   15.66</time>
   <energy>
    <i name="alphaZ">     79.60754481 </i>
    <i name="ewald">  51832.03136080 </i>
    <i name="hartreedc"> -58473.12008451 </i>
    <i name="XCdc">     51.08359981 </i>
    <i name="pawpsdc">   4450.08597673 </i>
    <i name="pawaedc">  -4215.10562062 </i>
    <i name="eentropy">     -0.31602119 </i>
    <i name="bandstr">  -1372.66296522 </i>
    <i name="atom">   7475.22437441 </i>
    <i name="e_fr_energy">   -173.17183498 </i>
    <i name="e_wo_entrp">   -172.85581379 </i>
    <i name="e_0_energy">   -173.01382438 </i>
   </energy>
  </scstep>
  <structure>
   <crystal>
    <varray name="basis" >
     <v>       7.93716925       4.58285422       0.00000000 </v>
     <v>      -7.93716912       4.58285443       0.00000000 </v>
     <v>       0.00000000       0.00000000      30.00000000 </v>
    </varray>
    <i name="volume">   2182.49340812 </i>
    <varray name="rec_basis" >
     <v>       0.06299475       0.10910231       0.00000000 </v>
     <v>      -0.06299475       0.10910231       0.00000000 </v>
     <v>       0.00000000       0.00000000       0.03333333 </v>
    </varray>
   </crystal>
   <varray name="positions" >
    <v>      -0.00006273      -0.00006273      -0.00000000 </v>
    <v>       0.99993727       0.33327062      -0.00000000 </v>
    <v>      -0.00006273       0.66660396      -0.00000000 </v>
    <v>       0.33327062      -0.00006273      -0.00000000 </v>
    <v>       0.33327062       0.33327062      -0.00000000 </v>
    <v>       0.33327062       0.66660396      -0.00000000 </v>
    <v>       0.66660396      -0.00006273      -0.00000000 </v>
    <v>       0.66660396       0.33327062      -0.00000000 </v>
    <v>       0.66660396       0.66660396      -0.00000000 </v>
    <v>       0.11104691       0.22215074       0.95073505 </v>
    <v>       0.22215074       0.11104691       0.04926494 </v>
    <v>       0.11104691       0.55548408       0.95073505 </v>
    <v>       0.22215074       0.44438026       0.04926494 </v>
    <v>       0.11104691       0.88881739       0.95073505 </v>
    <v>       0.22215074       0.77771360       0.04926494 </v>
    <v>       0.44438026       0.22215074       0.95073505 </v>
    <v>       0.55548408       0.11104691       0.04926494 </v>
    <v>       0.44438026       0.55548408       0.95073505 </v>
    <v>       0.55548408       0.44438026       0.04926494 </v>
    <v>       0.44438026       0.88881739       0.95073505 </v>
    <v>       0.55548408       0.77771360       0.04926494 </v>
    <v>       0.77771360       0.22215074       0.95073505 </v>
    <v>       0.88881739       0.11104691       0.04926494 </v>
    <v>       0.77771360       0.55548408       0.95073505 </v>
    <v>       0.88881739       0.44438026       0.04926494 </v>
    <v>       0.77771360       0.88881739       0.95073505 </v>
    <v>       0.88881739       0.77771360       0.04926494 </v>
   </varray>
  </structure>
  <varray name="forces" >
   <v>      -0.00000000      -0.00025941      -0.00000000 </v>
   <v>      -0.00000000      -0.00025941      -0.00000000 </v>
   <v>      -0.00000000      -0.00025941      -0.00000000 </v>
   <v>      -0.00000000      -0.00025941      -0.00000000 </v>
   <v>      -0.00000000      -0.00025941      -0.00000000 </v>
   <v>      -0.00000000      -0.00025941      -0.00000000 </v>
   <v>      -0.00000000      -0.00025941      -0.00000000 </v>
   <v>      -0.00000000      -0.00025941      -0.00000000 </v>
   <v>      -0.00000000      -0.00025941      -0.00000000 </v>
   <v>      -0.00027715       0.00012970       0.00424410 </v>
[...]
       <r>   -2.6124    0.0360 </r>
       <r>   -2.6090    0.0342 </r>
       <r>   -2.6090    0.0342 </r>
       <r>   -2.6088    0.0340 </r>
       <r>   -2.6088    0.0340 </r>
       <r>   -2.5565    0.0141 </r>
       <r>   -2.5565    0.0141 </r>
       <r>   -2.4464    0.0015 </r>
       <r>   -2.4107    0.0006 </r>
       <r>   -2.3766    0.0003 </r>
       <r>   -2.3766    0.0003 </r>
       <r>   -2.2421    0.0000 </r>
       <r>   -2.2421    0.0000 </r>
       <r>   -2.2162    0.0000 </r>
       <r>   -2.2162    0.0000 </r>
       <r>   -2.2022    0.0000 </r>
       <r>   -2.1884    0.0000 </r>
       <r>   -2.1767    0.0000 </r>
       <r>   -1.2464    0.0000 </r>
       <r>   -1.2464    0.0000 </r>
       <r>   -1.0776    0.0000 </r>
       <r>   -1.0003    0.0000 </r>
       <r>   -1.0003    0.0000 </r>
       <r>   -0.7813    0.0000 </r>
       <r>   -0.7813    0.0000 </r>
       <r>   -0.3613    0.0000 </r>
       <r>   -0.3613    0.0000 </r>
       <r>   -0.3231    0.0000 </r>
       <r>   -0.3231    0.0000 </r>
       <r>   -0.3047    0.0000 </r>
       <r>   -0.2538    0.0000 </r>
      </set>
      <set comment="kpoint 18">
       <r>  -17.5914    1.0000 </r>
       <r>  -17.5914    1.0000 </r>
       <r>  -17.3796    1.0000 </r>
       <r>  -16.5911    1.0000 </r>
       <r>  -16.5911    1.0000 </r>
       <r>  -16.4593    1.0000 </r>
       <r>  -16.2904    1.0000 </r>
       <r>  -16.0114    1.0000 </r>
       <r>  -16.0114    1.0000 </r>
       <r>  -15.8223    1.0000 </r>
       <r>  -15.6743    1.0000 </r>
       <r>  -15.6719    1.0000 </r>
       <r>  -15.6719    1.0000 </r>
       <r>  -15.6317    1.0000 </r>
       <r>  -15.6317    1.0000 </r>
       <r>  -15.4669    1.0000 </r>
       <r>  -15.4492    1.0000 </r>
       <r>  -15.4492    1.0000 </r>
       <r>   -9.6884    1.0000 </r>
       <r>   -9.5453    1.0000 </r>
       <r>   -9.5453    1.0000 </r>
       <r>   -8.5874    1.0000 </r>
       <r>   -8.5371    1.0000 </r>
       <r>   -8.5371    1.0000 </r>
       <r>   -8.4705    1.0000 </r>
       <r>   -8.4705    1.0000 </r>
       <r>   -8.4258    1.0000 </r>
       <r>   -8.4258    1.0000 </r>
       <r>   -8.2838    1.0000 </r>
       <r>   -8.2838    1.0000 </r>
       <r>   -8.2469    1.0000 </r>
       <r>   -8.2245    1.0000 </r>
       <r>   -7.9863    1.0000 </r>
       <r>   -7.4417    1.0000 </r>
       <r>   -7.1987    1.0000 </r>
       <r>   -7.1987    1.0000 </r>
       <r>   -7.1528    1.0000 </r>
       <r>   -6.9278    1.0000 </r>
       <r>   -6.9278    1.0000 </r>
       <r>   -6.9227    1.0000 </r>
       <r>   -6.8992    1.0000 </r>
       <r>   -6.8992    1.0000 </r>
       <r>   -6.6184    1.0000 </r>
       <r>   -6.6184    1.0000 </r>
       <r>   -6.5310    1.0000 </r>
       <r>   -6.5310    1.0000 </r>
       <r>   -6.4551    1.0000 </r>
       <r>   -6.4551    1.0000 </r>
       <r>   -6.3916    1.0000 </r>
       <r>   -6.3716    1.0000 </r>
       <r>   -6.2764    1.0000 </r>
       <r>   -6.1892    1.0000 </r>
       <r>   -5.9627    1.0000 </r>
       <r>   -5.9627    1.0000 </r>
       <r>   -5.7411    1.0000 </r>
       <r>   -5.7411    1.0000 </r>
       <r>   -5.7003    1.0000 </r>
       <r>   -5.6803    1.0000 </r>
       <r>   -5.6803    1.0000 </r>
       <r>   -5.5243    1.0000 </r>
       <r>   -5.5243    1.0000 </r>
       <r>   -5.4690    1.0000 </r>
       <r>   -5.2967    1.0000 </r>
       <r>   -5.2662    1.0000 </r>
       <r>   -5.2513    1.0000 </r>
       <r>   -5.2513    1.0000 </r>
       <r>   -5.1956    1.0000 </r>
       <r>   -4.9992    1.0000 </r>
       <r>   -4.9992    1.0000 </r>
       <r>   -4.5268    1.0000 </r>
       <r>   -4.4343    1.0000 </r>
       <r>   -4.4343    1.0000 </r>
       <r>   -3.7276    1.0000 </r>
       <r>   -3.6575    1.0000 </r>
       <r>   -3.6575    1.0000 </r>
       <r>   -3.6314    1.0000 </r>
       <r>   -3.5068    1.0000 </r>
       <r>   -3.5068    1.0000 </r>
       <r>   -3.2845    0.9984 </r>
       <r>   -3.1579    0.9802 </r>
       <r>   -3.1579    0.9802 </r>
       <r>   -2.7386    0.1824 </r>
       <r>   -2.7386    0.1824 </r>
       <r>   -2.7371    0.1795 </r>
       <r>   -2.6529    0.0652 </r>
       <r>   -2.6155    0.0378 </r>
       <r>   -2.6155    0.0378 </r>
       <r>   -2.4425    0.0014 </r>
       <r>   -2.4220    0.0008 </r>
       <r>   -2.4220    0.0008 </r>
       <r>   -2.3507    0.0001 </r>
       <r>   -2.2660    0.0000 </r>
       <r>   -2.2660    0.0000 </r>
       <r>   -2.2308    0.0000 </r>
       <r>   -2.2308    0.0000 </r>
       <r>   -2.2012    0.0000 </r>
       <r>   -2.1994    0.0000 </r>
       <r>   -2.1994    0.0000 </r>
       <r>   -2.1544    0.0000 </r>
       <r>   -1.4885    0.0000 </r>
       <r>   -1.4885    0.0000 </r>
       <r>   -1.4737    0.0000 </r>
       <r>   -0.8626    0.0000 </r>
       <r>   -0.8626    0.0000 </r>
       <r>   -0.8015    0.0000 </r>
       <r>   -0.8015    0.0000 </r>
       <r>   -0.7416    0.0000 </r>
       <r>   -0.7012    0.0000 </r>
       <r>   -0.5748    0.0000 </r>
       <r>   -0.4469    0.0000 </r>
       <r>   -0.4469    0.0000 </r>
       <r>   -0.1794    0.0000 </r>
      </set>
      <set comment="kpoint 19">
       <r>  -17.7553    1.0000 </r>
       <r>  -17.5380    1.0000 </r>
       <r>  -17.1258    1.0000 </r>
       <r>  -16.6945    1.0000 </r>
       <r>  -16.5726    1.0000 </r>
       <r>  -16.5577    1.0000 </r>
       <r>  -16.3045    1.0000 </r>
       <r>  -15.9914    1.0000 </r>
       <r>  -15.9800    1.0000 </r>
       <r>  -15.7618    1.0000 </r>
       <r>  -15.7430    1.0000 </r>
       <r>  -15.7252    1.0000 </r>
       <r>  -15.6603    1.0000 </r>
       <r>  -15.5979    1.0000 </r>
       <r>  -15.5407    1.0000 </r>
       <r>  -15.5194    1.0000 </r>
       <r>  -15.4950    1.0000 </r>
       <r>  -15.4406    1.0000 </r>
       <r>   -9.7328    1.0000 </r>
       <r>   -9.3516    1.0000 </r>
       <r>   -9.3167    1.0000 </r>
       <r>   -8.7623    1.0000 </r>
       <r>   -8.6900    1.0000 </r>
       <r>   -8.6450    1.0000 </r>
       <r>   -8.6055    1.0000 </r>
       <r>   -8.4755    1.0000 </r>
       <r>   -8.4708    1.0000 </r>
       <r>   -8.4154    1.0000 </r>
       <r>   -8.3754    1.0000 </r>
       <r>   -8.2777    1.0000 </r>
       <r>   -8.0885    1.0000 </r>
       <r>   -7.9849    1.0000 </r>
       <r>   -7.6856    1.0000 </r>
       <r>   -7.5929    1.0000 </r>
       <r>   -7.4159    1.0000 </r>
       <r>   -7.2807    1.0000 </r>
       <r>   -6.9703    1.0000 </r>
       <r>   -6.9511    1.0000 </r>
       <r>   -6.9471    1.0000 </r>
       <r>   -6.9345    1.0000 </r>
       <r>   -6.9269    1.0000 </r>
       <r>   -6.8952    1.0000 </r>
       <r>   -6.6989    1.0000 </r>
       <r>   -6.6573    1.0000 </r>
       <r>   -6.6234    1.0000 </r>
       <r>   -6.6086    1.0000 </r>
       <r>   -6.5216    1.0000 </r>
       <r>   -6.4899    1.0000 </r>
       <r>   -6.2742    1.0000 </r>
       <r>   -6.1891    1.0000 </r>
       <r>   -6.1405    1.0000 </r>
       <r>   -6.1180    1.0000 </r>
       <r>   -5.9230    1.0000 </r>
       <r>   -5.9229    1.0000 </r>
       <r>   -5.8957    1.0000 </r>
       <r>   -5.8052    1.0000 </r>
       <r>   -5.7601    1.0000 </r>
       <r>   -5.7526    1.0000 </r>
       <r>   -5.7508    1.0000 </r>
       <r>   -5.7111    1.0000 </r>
       <r>   -5.6446    1.0000 </r>
       <r>   -5.5817    1.0000 </r>
       <r>   -5.5500    1.0000 </r>
       <r>   -5.4476    1.0000 </r>
       <r>   -5.0917    1.0000 </r>
       <r>   -5.0326    1.0000 </r>
       <r>   -4.8705    1.0000 </r>
       <r>   -4.7654    1.0000 </r>
       <r>   -4.7358    1.0000 </r>
       <r>   -4.6460    1.0000 </r>
       <r>   -4.3914    1.0000 </r>
       <r>   -4.2503    1.0000 </r>
       <r>   -3.9843    1.0000 </r>
       <r>   -3.7456    1.0000 </r>
       <r>   -3.6828    1.0000 </r>
       <r>   -3.6094    1.0000 </r>
       <r>   -3.4912    1.0000 </r>
       <r>   -3.4329    1.0000 </r>
       <r>   -3.3022    0.9990 </r>
       <r>   -3.2874    0.9985 </r>
       <r>   -3.0976    0.9487 </r>
       <r>   -2.7078    0.1304 </r>
       <r>   -2.6975    0.1156 </r>
       <r>   -2.6951    0.1124 </r>
       <r>   -2.6726    0.0848 </r>
       <r>   -2.6337    0.0496 </r>
       <r>   -2.5893    0.0249 </r>
       <r>   -2.5718    0.0185 </r>
       <r>   -2.4637    0.0022 </r>
       <r>   -2.4593    0.0020 </r>
       <r>   -2.2812    0.0000 </r>
       <r>   -2.2650    0.0000 </r>
       <r>   -2.2543    0.0000 </r>
       <r>   -2.2235    0.0000 </r>
       <r>   -2.2038    0.0000 </r>
       <r>   -2.1998    0.0000 </r>
       <r>   -2.1618    0.0000 </r>
       <r>   -2.1414    0.0000 </r>
       <r>   -2.1312    0.0000 </r>
       <r>   -1.4179    0.0000 </r>
       <r>   -1.3469    0.0000 </r>
       <r>   -1.3188    0.0000 </r>
       <r>   -1.1209    0.0000 </r>
       <r>   -1.0123    0.0000 </r>
       <r>   -0.9920    0.0000 </r>
       <r>   -0.9277    0.0000 </r>
       <r>   -0.8016    0.0000 </r>
       <r>   -0.5699    0.0000 </r>
       <r>   -0.3318    0.0000 </r>
       <r>   -0.3018    0.0000 </r>
       <r>   -0.2818    0.0000 </r>
       <r>   -0.2031    0.0000 </r>
      </set>
      <set comment="kpoint 20">
       <r>  -17.8667    1.0000 </r>
       <r>  -17.4323    1.0000 </r>
       <r>  -16.8395    1.0000 </r>
       <r>  -16.8395    1.0000 </r>
       <r>  -16.7655    1.0000 </r>
       <r>  -16.4920    1.0000 </r>
       <r>  -16.1342    1.0000 </r>
       <r>  -16.1342    1.0000 </r>
       <r>  -15.9536    1.0000 </r>
       <r>  -15.9536    1.0000 </r>
       <r>  -15.7826    1.0000 </r>
       <r>  -15.6380    1.0000 </r>
       <r>  -15.6380    1.0000 </r>
       <r>  -15.5739    1.0000 </r>
       <r>  -15.5739    1.0000 </r>
       <r>  -15.5306    1.0000 </r>
       <r>  -15.4387    1.0000 </r>
       <r>  -15.4387    1.0000 </r>
       <r>   -9.6761    1.0000 </r>
       <r>   -9.0335    1.0000 </r>
       <r>   -9.0335    1.0000 </r>
       <r>   -9.0002    1.0000 </r>
       <r>   -9.0002    1.0000 </r>
       <r>   -8.7642    1.0000 </r>
       <r>   -8.5856    1.0000 </r>
       <r>   -8.4210    1.0000 </r>
       <r>   -8.4210    1.0000 </r>
       <r>   -8.3500    1.0000 </r>
       <r>   -8.3500    1.0000 </r>
       <r>   -8.3071    1.0000 </r>
       <r>   -7.9431    1.0000 </r>
       <r>   -7.9431    1.0000 </r>
       <r>   -7.6845    1.0000 </r>
       <r>   -7.6845    1.0000 </r>
       <r>   -7.4182    1.0000 </r>
       <r>   -7.1772    1.0000 </r>
       <r>   -7.1772    1.0000 </r>
       <r>   -7.0933    1.0000 </r>
       <r>   -7.0933    1.0000 </r>
       <r>   -6.9608    1.0000 </r>
       <r>   -6.9451    1.0000 </r>
       <r>   -6.9451    1.0000 </r>
       <r>   -6.7785    1.0000 </r>
       <r>   -6.7540    1.0000 </r>
       <r>   -6.7540    1.0000 </r>
       <r>   -6.5024    1.0000 </r>
       <r>   -6.5024    1.0000 </r>
       <r>   -6.3958    1.0000 </r>
       <r>   -6.3958    1.0000 </r>
       <r>   -6.2153    1.0000 </r>
       <r>   -6.0373    1.0000 </r>
       <r>   -6.0373    1.0000 </r>
       <r>   -5.9737    1.0000 </r>
       <r>   -5.9000    1.0000 </r>
       <r>   -5.9000    1.0000 </r>
       <r>   -5.8965    1.0000 </r>
       <r>   -5.8647    1.0000 </r>
       <r>   -5.7341    1.0000 </r>
       <r>   -5.6942    1.0000 </r>
       <r>   -5.6942    1.0000 </r>
       <r>   -5.5763    1.0000 </r>
       <r>   -5.5763    1.0000 </r>
       <r>   -5.5114    1.0000 </r>
       <r>   -5.5114    1.0000 </r>
       <r>   -5.0807    1.0000 </r>
       <r>   -4.8570    1.0000 </r>
       <r>   -4.8569    1.0000 </r>
       <r>   -4.8569    1.0000 </r>
       <r>   -4.5295    1.0000 </r>
       <r>   -4.4051    1.0000 </r>
       <r>   -4.3726    1.0000 </r>
       <r>   -4.2406    1.0000 </r>
       <r>   -4.0841    1.0000 </r>
       <r>   -3.8531    1.0000 </r>
       <r>   -3.6842    1.0000 </r>
       <r>   -3.5811    1.0000 </r>
       <r>   -3.5811    1.0000 </r>
       <r>   -3.4821    1.0000 </r>
       <r>   -3.4821    1.0000 </r>
       <r>   -3.1055    0.9543 </r>
       <r>   -3.1055    0.9543 </r>
       <r>   -2.6651    0.0770 </r>
       <r>   -2.6541    0.0663 </r>
       <r>   -2.6541    0.0663 </r>
       <r>   -2.6360    0.0513 </r>
       <r>   -2.6360    0.0513 </r>
       <r>   -2.6153    0.0377 </r>
       <r>   -2.6153    0.0377 </r>
       <r>   -2.4703    0.0025 </r>
       <r>   -2.4616    0.0021 </r>
       <r>   -2.2988    0.0000 </r>
       <r>   -2.2988    0.0000 </r>
       <r>   -2.2292    0.0000 </r>
       <r>   -2.2292    0.0000 </r>
       <r>   -2.2096    0.0000 </r>
       <r>   -2.2096    0.0000 </r>
       <r>   -2.1338    0.0000 </r>
       <r>   -2.1240    0.0000 </r>
       <r>   -2.1211    0.0000 </r>
       <r>   -1.3028    0.0000 </r>
       <r>   -1.3028    0.0000 </r>
       <r>   -1.1459    0.0000 </r>
       <r>   -1.1459    0.0000 </r>
       <r>   -1.1224    0.0000 </r>
       <r>   -1.0251    0.0000 </r>
       <r>   -1.0251    0.0000 </r>
       <r>   -0.6715    0.0000 </r>
       <r>   -0.4258    0.0000 </r>
       <r>   -0.4258    0.0000 </r>
       <r>   -0.2266    0.0000 </r>
       <r>   -0.1591    0.0000 </r>
       <r>   -0.1569    0.0000 </r>
      </set>
      <set comment="kpoint 21">
       <r>  -17.6730    1.0000 </r>
       <r>  -17.6730    1.0000 </r>
       <r>  -16.8616    1.0000 </r>
       <r>  -16.8616    1.0000 </r>
       <r>  -16.6425    1.0000 </r>
       <r>  -16.6425    1.0000 </r>
       <r>  -16.1471    1.0000 </r>
       <r>  -16.1471    1.0000 </r>
       <r>  -15.7537    1.0000 </r>
       <r>  -15.7537    1.0000 </r>
       <r>  -15.7537    1.0000 </r>
       <r>  -15.7537    1.0000 </r>
       <r>  -15.7226    1.0000 </r>
       <r>  -15.5320    1.0000 </r>
       <r>  -15.5320    1.0000 </r>
       <r>  -15.5320    1.0000 </r>
       <r>  -15.5320    1.0000 </r>
       <r>  -15.4911    1.0000 </r>
       <r>   -9.7838    1.0000 </r>
       <r>   -9.0610    1.0000 </r>
       <r>   -9.0610    1.0000 </r>
       <r>   -9.0610    1.0000 </r>
       <r>   -9.0610    1.0000 </r>
       <r>   -8.6248    1.0000 </r>
       <r>   -8.5579    1.0000 </r>
       <r>   -8.5579    1.0000 </r>
       <r>   -8.4019    1.0000 </r>
       <r>   -8.4019    1.0000 </r>
       <r>   -8.4019    1.0000 </r>
       <r>   -8.4019    1.0000 </r>
       <r>   -7.8890    1.0000 </r>
       <r>   -7.8890    1.0000 </r>
       <r>   -7.7140    1.0000 </r>
       <r>   -7.7140    1.0000 </r>
       <r>   -7.1021    1.0000 </r>
       <r>   -7.1021    1.0000 </r>
       <r>   -7.0902    1.0000 </r>
       <r>   -7.0902    1.0000 </r>
       <r>   -6.9560    1.0000 </r>
       <r>   -6.8924    1.0000 </r>
       <r>   -6.8924    1.0000 </r>
       <r>   -6.8924    1.0000 </r>
       <r>   -6.8924    1.0000 </r>
       <r>   -6.6387    1.0000 </r>
       <r>   -6.6387    1.0000 </r>
       <r>   -6.6387    1.0000 </r>
       <r>   -6.6387    1.0000 </r>
       <r>   -6.2301    1.0000 </r>
       <r>   -6.1607    1.0000 </r>
       <r>   -6.1607    1.0000 </r>
       <r>   -6.1607    1.0000 </r>
       <r>   -6.1607    1.0000 </r>
       <r>   -5.8705    1.0000 </r>
       <r>   -5.8705    1.0000 </r>
       <r>   -5.8559    1.0000 </r>
       <r>   -5.8559    1.0000 </r>
       <r>   -5.8206    1.0000 </r>
       <r>   -5.8206    1.0000 </r>
       <r>   -5.7226    1.0000 </r>
       <r>   -5.7226    1.0000 </r>
       <r>   -5.7226    1.0000 </r>
       <r>   -5.7226    1.0000 </r>
       <r>   -5.7188    1.0000 </r>
       <r>   -5.3097    1.0000 </r>
       <r>   -5.3097    1.0000 </r>
       <r>   -4.8219    1.0000 </r>
       <r>   -4.8219    1.0000 </r>
       <r>   -4.8008    1.0000 </r>
       <r>   -4.8008    1.0000 </r>
       <r>   -4.4216    1.0000 </r>
       <r>   -4.2481    1.0000 </r>
       <r>   -4.2481    1.0000 </r>
       <r>   -4.2253    1.0000 </r>
       <r>   -3.7459    1.0000 </r>
       <r>   -3.7459    1.0000 </r>
       <r>   -3.5246    1.0000 </r>
       <r>   -3.5246    1.0000 </r>
       <r>   -3.2810    0.9983 </r>
       <r>   -3.2810    0.9983 </r>
       <r>   -3.2810    0.9983 </r>
       <r>   -3.2810    0.9983 </r>
       <r>   -2.6832    0.0971 </r>
       <r>   -2.6669    0.0787 </r>
       <r>   -2.6669    0.0787 </r>
       <r>   -2.6451    0.0585 </r>
       <r>   -2.6451    0.0585 </r>
       <r>   -2.6451    0.0585 </r>
       <r>   -2.6451    0.0585 </r>
       <r>   -2.4753    0.0028 </r>
       <r>   -2.4753    0.0028 </r>
       <r>   -2.2410    0.0000 </r>
       <r>   -2.2410    0.0000 </r>
       <r>   -2.2410    0.0000 </r>
       <r>   -2.2410    0.0000 </r>
       <r>   -2.2306    0.0000 </r>
       <r>   -2.2306    0.0000 </r>
       <r>   -2.1191    0.0000 </r>
       <r>   -2.0948    0.0000 </r>
       <r>   -2.0948    0.0000 </r>
       <r>   -1.2192    0.0000 </r>
       <r>   -1.2192    0.0000 </r>
       <r>   -1.2192    0.0000 </r>
       <r>   -1.2192    0.0000 </r>
       <r>   -1.2007    0.0000 </r>
       <r>   -1.2007    0.0000 </r>
       <r>   -0.9778    0.0000 </r>
       <r>   -0.9778    0.0000 </r>
       <r>   -0.4492    0.0000 </r>
       <r>   -0.4492    0.0000 </r>
       <r>   -0.2255    0.0000 </r>
       <r>   -0.1681    0.0000 </r>
       <r>   -0.1681    0.0000 </r>
      </set>
     </set>
    </set>
   </array>
  </eigenvalues>
  <separator name="orbital magnetization" >
   <v name="MAGDIPOLOUT">      0.00000000      0.00000000      0.00000000</v>
  </separator>
 </calculation>
 <structure name="finalpos" >
  <crystal>
   <varray name="basis" >
    <v>       7.93716925       4.58285422       0.00000000 </v>
    <v>      -7.93716912       4.58285443       0.00000000 </v>
    <v>       0.00000000       0.00000000      30.00000000 </v>
   </varray>
   <i name="volume">   2182.49340812 </i>
   <varray name="rec_basis" >
    <v>       0.06299475       0.10910231       0.00000000 </v>
    <v>      -0.06299475       0.10910231       0.00000000 </v>
    <v>       0.00000000       0.00000000       0.03333333 </v>
   </varray>
  </crystal>
  <varray name="positions" >
   <v>      -0.00006273      -0.00006273      -0.00000000 </v>
   <v>       0.99993727       0.33327062      -0.00000000 </v>
   <v>      -0.00006273       0.66660396      -0.00000000 </v>
   <v>       0.33327062      -0.00006273      -0.00000000 </v>
   <v>       0.33327062       0.33327062      -0.00000000 </v>
   <v>       0.33327062       0.66660396      -0.00000000 </v>
   <v>       0.66660396      -0.00006273      -0.00000000 </v>
   <v>       0.66660396       0.33327062      -0.00000000 </v>
   <v>       0.66660396       0.66660396      -0.00000000 </v>
   <v>       0.11104691       0.22215074       0.95073505 </v>
   <v>       0.22215074       0.11104691       0.04926494 </v>
   <v>       0.11104691       0.55548408       0.95073505 </v>
   <v>       0.22215074       0.44438026       0.04926494 </v>
   <v>       0.11104691       0.88881739       0.95073505 </v>
   <v>       0.22215074       0.77771360       0.04926494 </v>
   <v>       0.44438026       0.22215074       0.95073505 </v>
   <v>       0.55548408       0.11104691       0.04926494 </v>
   <v>       0.44438026       0.55548408       0.95073505 </v>
   <v>       0.55548408       0.44438026       0.04926494 </v>
   <v>       0.44438026       0.88881739       0.95073505 </v>
   <v>       0.55548408       0.77771360       0.04926494 </v>
   <v>       0.77771360       0.22215074       0.95073505 </v>
   <v>       0.88881739       0.11104691       0.04926494 </v>
   <v>       0.77771360       0.55548408       0.95073505 </v>
   <v>       0.88881739       0.44438026       0.04926494 </v>
   <v>       0.77771360       0.88881739       0.95073505 </v>
   <v>       0.88881739       0.77771360       0.04926494 </v>
  </varray>
 </structure>
</modeling>
