unknown system                          
           1
     8.160896    4.726331    0.000000
    -8.160896    4.726331    0.000000
     0.000000    0.000000   30.000000
   Cr   S 
   9  18
Direct configuration=     1
   0.00000000  0.00000000  0.00000000
   1.00000000  0.33333334  0.00000000
   0.00000000  0.66666669  0.00000000
   0.33333334  0.00000000  0.00000000
   0.33333334  0.33333334  0.00000000
   0.33333334  0.66666669  0.00000000
   0.66666669  0.00000000  0.00000000
   0.66666669  0.33333334  0.00000000
   0.66666669  0.66666669  0.00000000
   0.11068511  0.22244981  0.95539999
   0.22244981  0.11068511  0.04460000
   0.11068511  0.55578315  0.95539999
   0.22244981  0.44401845  0.04460000
   0.11068511  0.88911647  0.95539999
   0.22244981  0.77735180  0.04460000
   0.44401845  0.22244981  0.95539999
   0.55578315  0.11068511  0.04460000
   0.44401845  0.55578315  0.95539999
   0.55578315  0.44401845  0.04460000
   0.44401845  0.88911647  0.95539999
   0.55578315  0.77735180  0.04460000
   0.77735180  0.22244981  0.95539999
   0.88911647  0.11068511  0.04460000
   0.77735180  0.55578315  0.95539999
   0.88911647  0.44401845  0.04460000
   0.77735180  0.88911647  0.95539999
   0.88911647  0.77735180  0.04460000
unknown system                          
           1
     8.247563    4.766036    0.000000
    -8.247562    4.766036    0.000000
     0.000000    0.000000   30.000000
   Cr   S 
   9  18
Direct configuration=     2
   0.00002073  0.00002073  0.00000000
   1.00002073  0.33335408  0.00000000
   0.00002073  0.66668742  0.00000000
   0.33335408  0.00002073  0.00000000
   0.33335408  0.33335408  0.00000000
   0.33335408  0.66668742  0.00000000
   0.66668742  0.00002073  0.00000000
   0.66668742  0.33335408  0.00000000
   0.66668742  0.66668742  0.00000000
   0.11081929  0.22229490  0.95520522
   0.22229490  0.11081929  0.04479477
   0.11081929  0.55562824  0.95520522
   0.22229490  0.44415263  0.04479477
   0.11081929  0.88896156  0.95520522
   0.22229490  0.77748598  0.04479477
   0.44415263  0.22229490  0.95520522
   0.55562824  0.11081929  0.04479477
   0.44415263  0.55562824  0.95520522
   0.55562824  0.44415263  0.04479477
   0.44415263  0.88896156  0.95520522
   0.55562824  0.77748598  0.04479477
   0.77748598  0.22229490  0.95520522
   0.88896156  0.11081929  0.04479477
   0.77748598  0.55562824  0.95520522
   0.88896156  0.44415263  0.04479477
   0.77748598  0.88896156  0.95520522
   0.88896156  0.77748598  0.04479477
unknown system                          
           1
     8.162872    4.713623    0.000000
    -8.162872    4.713624    0.000000
     0.000000    0.000000   30.000000
   Cr   S 
   9  18
Direct configuration=     3
   0.00000865  0.00000865 -0.00000000
   1.00000865  0.33334199 -0.00000000
   0.00000865  0.66667533 -0.00000000
   0.33334199  0.00000865 -0.00000000
   0.33334199  0.33334199 -0.00000000
   0.33334199  0.66667533 -0.00000000
   0.66667533  0.00000865 -0.00000000
   0.66667533  0.33334199 -0.00000000
   0.66667533  0.66667533 -0.00000000
   0.11092209  0.22220418  0.95340432
   0.22220418  0.11092209  0.04659567
   0.11092209  0.55553752  0.95340432
   0.22220418  0.44425544  0.04659567
   0.11092209  0.88887084  0.95340432
   0.22220418  0.77758878  0.04659567
   0.44425544  0.22220418  0.95340432
   0.55553752  0.11092209  0.04659567
   0.44425544  0.55553752  0.95340432
   0.55553752  0.44425544  0.04659567
   0.44425544  0.88887084  0.95340432
   0.55553752  0.77758878  0.04659567
   0.77758878  0.22220418  0.95340432
   0.88887084  0.11092209  0.04659567
   0.77758878  0.55553752  0.95340432
   0.88887084  0.44425544  0.04659567
   0.77758878  0.88887084  0.95340432
   0.88887084  0.77758878  0.04659567
unknown system                          
           1
     7.983190    4.606960    0.000000
    -7.983190    4.606961    0.000000
     0.000000    0.000000   30.000000
   Cr   S 
   9  18
Direct configuration=     4
   0.00000201  0.00000201 -0.00000000
   1.00000201  0.33333536 -0.00000000
   0.00000201  0.66666870 -0.00000000
   0.33333536  0.00000201 -0.00000000
   0.33333536  0.33333536 -0.00000000
   0.33333536  0.66666870 -0.00000000
   0.66666870  0.00000201 -0.00000000
   0.66666870  0.33333536 -0.00000000
   0.66666870  0.66666870 -0.00000000
   0.11096013  0.22217277  0.95282557
   0.22217277  0.11096013  0.04717442
   0.11096013  0.55550612  0.95282557
   0.22217277  0.44429348  0.04717442
   0.11096013  0.88883943  0.95282557
   0.22217277  0.77762682  0.04717442
   0.44429348  0.22217277  0.95282557
   0.55550612  0.11096013  0.04717442
   0.44429348  0.55550612  0.95282557
   0.55550612  0.44429348  0.04717442
   0.44429348  0.88883943  0.95282557
   0.55550612  0.77762682  0.04717442
   0.77762682  0.22217277  0.95282557
   0.88883943  0.11096013  0.04717442
   0.77762682  0.55550612  0.95282557
   0.88883943  0.44429348  0.04717442
   0.77762682  0.88883943  0.95282557
   0.88883943  0.77762682  0.04717442
unknown system                          
           1
     7.939826    4.584024    0.000000
    -7.939826    4.584025    0.000000
     0.000000    0.000000   30.000000
   Cr   S 
   9  18
Direct configuration=     5
  -0.00003909 -0.00003909 -0.00000000
   0.99996091  0.33329425 -0.00000000
  -0.00003909  0.66662760 -0.00000000
   0.33329425 -0.00003909 -0.00000000
   0.33329425  0.33329425 -0.00000000
   0.33329425  0.66662760 -0.00000000
   0.66662760 -0.00003909 -0.00000000
   0.66662760  0.33329425 -0.00000000
   0.66662760  0.66662760 -0.00000000
   0.11103657  0.22213745  0.95114707
   0.22213745  0.11103657  0.04885292
   0.11103657  0.55547079  0.95114707
   0.22213745  0.44436991  0.04885292
   0.11103657  0.88880410  0.95114707
   0.22213745  0.77770325  0.04885292
   0.44436991  0.22213745  0.95114707
   0.55547079  0.11103657  0.04885292
   0.44436991  0.55547079  0.95114707
   0.55547079  0.44436991  0.04885292
   0.44436991  0.88880410  0.95114707
   0.55547079  0.77770325  0.04885292
   0.77770325  0.22213745  0.95114707
   0.88880410  0.11103657  0.04885292
   0.77770325  0.55547079  0.95114707
   0.88880410  0.44436991  0.04885292
   0.77770325  0.88880410  0.95114707
   0.88880410  0.77770325  0.04885292
unknown system                          
           1
     7.932059    4.579952    0.000000
    -7.932059    4.579952    0.000000
     0.000000    0.000000   30.000000
   Cr   S 
   9  18
Direct configuration=     6
  -0.00005857 -0.00005857 -0.00000000
   0.99994143  0.33327478 -0.00000000
  -0.00005857  0.66660812 -0.00000000
   0.33327478 -0.00005857 -0.00000000
   0.33327478  0.33327478 -0.00000000
   0.33327478  0.66660812 -0.00000000
   0.66660812 -0.00005857 -0.00000000
   0.66660812  0.33327478 -0.00000000
   0.66660812  0.66660812 -0.00000000
   0.11104746  0.22214603  0.95073057
   0.22214603  0.11104746  0.04926942
   0.11104746  0.55547937  0.95073057
   0.22214603  0.44438080  0.04926942
   0.11104746  0.88881269  0.95073057
   0.22214603  0.77771414  0.04926942
   0.44438080  0.22214603  0.95073057
   0.55547937  0.11104746  0.04926942
   0.44438080  0.55547937  0.95073057
   0.55547937  0.44438080  0.04926942
   0.44438080  0.88881269  0.95073057
   0.55547937  0.77771414  0.04926942
   0.77771414  0.22214603  0.95073057
   0.88881269  0.11104746  0.04926942
   0.77771414  0.55547937  0.95073057
   0.88881269  0.44438080  0.04926942
   0.77771414  0.88881269  0.95073057
   0.88881269  0.77771414  0.04926942
unknown system                          
           1
     7.937169    4.582854    0.000000
    -7.937169    4.582854    0.000000
     0.000000    0.000000   30.000000
   Cr   S 
   9  18
Direct configuration=     7
  -0.00006339 -0.00006339 -0.00000000
   0.99993661  0.33326996 -0.00000000
  -0.00006339  0.66660330 -0.00000000
   0.33326996 -0.00006339 -0.00000000
   0.33326996  0.33326996 -0.00000000
   0.33326996  0.66660330 -0.00000000
   0.66660330 -0.00006339 -0.00000000
   0.66660330  0.33326996 -0.00000000
   0.66660330  0.66660330 -0.00000000
   0.11104802  0.22215028  0.95071058
   0.22215028  0.11104802  0.04928941
   0.11104802  0.55548363  0.95071058
   0.22215028  0.44438136  0.04928941
   0.11104802  0.88881694  0.95071058
   0.22215028  0.77771471  0.04928941
   0.44438136  0.22215028  0.95071058
   0.55548363  0.11104802  0.04928941
   0.44438136  0.55548363  0.95071058
   0.55548363  0.44438136  0.04928941
   0.44438136  0.88881694  0.95071058
   0.55548363  0.77771471  0.04928941
   0.77771471  0.22215028  0.95071058
   0.88881694  0.11104802  0.04928941
   0.77771471  0.55548363  0.95071058
   0.88881694  0.44438136  0.04928941
   0.77771471  0.88881694  0.95071058
   0.88881694  0.77771471  0.04928941
unknown system                          
           1
     7.937169    4.582854    0.000000
    -7.937169    4.582854    0.000000
     0.000000    0.000000   30.000000
   Cr   S 
   9  18
Direct configuration=     8
  -0.00006273 -0.00006273 -0.00000000
   0.99993727  0.33327062 -0.00000000
  -0.00006273  0.66660396 -0.00000000
   0.33327062 -0.00006273 -0.00000000
   0.33327062  0.33327062 -0.00000000
   0.33327062  0.66660396 -0.00000000
   0.66660396 -0.00006273 -0.00000000
   0.66660396  0.33327062 -0.00000000
   0.66660396  0.66660396 -0.00000000
   0.11104691  0.22215074  0.95073505
   0.22215074  0.11104691  0.04926494
   0.11104691  0.55548408  0.95073505
   0.22215074  0.44438026  0.04926494
   0.11104691  0.88881739  0.95073505
   0.22215074  0.77771360  0.04926494
   0.44438026  0.22215074  0.95073505
   0.55548408  0.11104691  0.04926494
   0.44438026  0.55548408  0.95073505
   0.55548408  0.44438026  0.04926494
   0.44438026  0.88881739  0.95073505
   0.55548408  0.77771360  0.04926494
   0.77771360  0.22215074  0.95073505
   0.88881739  0.11104691  0.04926494
   0.77771360  0.55548408  0.95073505
   0.88881739  0.44438026  0.04926494
   0.77771360  0.88881739  0.95073505
   0.88881739  0.77771360  0.04926494
